ITEM: TIMESTEP
0
ITEM: NUMBER OF ATOMS
14341
ITEM: BOX BOUNDS pp pp pp
-1.0000000000000000e+01 1.0000000000000000e+01
-1.0000000000000000e+01 1.0000000000000000e+01
-1.0000000000000000e+01 1.0000000000000000e+01
ITEM: ATOMS x y z q
3.13777095 0.00000000 3.50000578 -0.08704797
3.24770879 0.00000000 3.49827876 -0.10051618
3.19273985 0.09520896 3.49827876 -0.09383260
3.08280205 0.09520896 3.49827876 -0.08015971
3.02783311 0.00000000 3.49827876 -0.07316515
3.08280205 -0.09520896 3.49827876 -0.08015971
3.19273985 -0.09520896 3.49827876 -0.09383260
3.24770879 0.00000000 3.49827876 -0.10051618
3.35753810 0.00000000 3.49309933 -0.11357732
3.33236510 0.10213090 3.49309933 -0.11061746
3.26261296 0.18086485 3.49309933 -0.10231127
3.16426097 0.21816483 3.49309933 -0.09033032
3.05984043 0.20548589 3.49309933 -0.07725103
2.97327284 0.14573260 3.49309933 -0.06611477
2.92438980 0.05259373 3.49309933 -0.05970446
2.92438980 -0.05259373 3.49309933 -0.05970446
2.97327284 -0.14573260 3.49309933 -0.06611477
3.05984043 -0.20548589 3.49309933 -0.07725103
3.16426097 -0.21816483 3.49309933 -0.09033032
3.26261296 -0.18086485 3.49309933 -0.10231127
3.33236510 -0.10213090 3.49309933 -0.11061746
3.35753810 0.00000000 3.49309933 -0.11357732
3.46715061 0.00000000 3.48447264 -0.12623901
3.45102960 0.10178390 3.48447264 -0.12439955
3.40424470 0.19360450 3.48447264 -0.11901715
3.33137544 0.26647372 3.48447264 -0.11050069
3.23955486 0.31325865 3.48447264 -0.09953105
3.13777095 0.32937964 3.48447264 -0.08704797
3.03598703 0.31325865 3.48447264 -0.07420953
2.94416646 0.26647372 3.48447264 -0.06230868
2.87129720 0.19360450 3.48447264 -0.05263946
2.82451229 0.10178390 3.48447264 -0.04632306
2.80839129 0.00000000 3.48447264 -0.04412651
2.82451229 -0.10178390 3.48447264 -0.04632306
2.87129720 -0.19360450 3.48447264 -0.05263946
2.94416646 -0.26647372 3.48447264 -0.06230868
3.03598703 -0.31325865 3.48447264 -0.07420953
3.13777095 -0.32937964 3.48447264 -0.08704797
3.23955486 -0.31325865 3.48447264 -0.09953105
3.33137544 -0.26647372 3.48447264 -0.11050069
3.40424470 -0.19360450 3.48447264 -0.11901715
3.45102960 -0.10178390 3.48447264 -0.12439955
3.57643799 0.00000000 3.47240719 -0.13850892
3.56461369 0.10116358 3.47240719 -0.13719794
3.52977813 0.19687341 3.47240719 -0.13331253
3.47380940 0.28196974 3.47240719 -0.12699656
3.39972473 0.35186501 3.47240719 -0.11849364
3.31151807 0.40279114 3.47240719 -0.10815119
3.21394471 0.43200270 3.47240719 -0.09642270
3.11226472 0.43792489 3.47240719 -0.08386478
3.01195981 0.42023843 3.47240719 -0.07112518
2.91843740 0.37989680 3.47240719 -0.05891775
2.83673935 0.31907484 3.47240719 -0.04798215
2.77127000 0.24105148 3.47240719 -0.03902883
2.72555879 0.15003297 3.47240719 -0.03267413
2.70207000 0.05092614 3.47240719 -0.02937494
2.70207000 -0.05092614 3.47240719 -0.02937494
2.72555879 -0.15003297 3.47240719 -0.03267413
2.77127000 -0.24105148 3.47240719 -0.03902883
2.83673935 -0.31907484 3.47240719 -0.04798215
2.91843740 -0.37989680 3.47240719 -0.05891775
3.01195981 -0.42023843 3.47240719 -0.07112518
3.11226472 -0.43792489 3.47240719 -0.08386478
3.21394471 -0.43200270 3.47240719 -0.09642270
3.31151807 -0.40279114 3.47240719 -0.10815119
3.39972473 -0.35186501 3.47240719 -0.11849364
3.47380940 -0.28196974 3.47240719 -0.12699656
3.52977813 -0.19687341 3.47240719 -0.13331253
3.56461369 -0.10116358 3.47240719 -0.13719794
3.68529251 0.00000000 3.45691490 -0.15039472
3.67596989 0.10060682 3.45691490 -0.14938952
3.64831960 0.19778759 3.45691490 -0.14639425
3.60328314 0.28823294 3.45691490 -0.14147064
3.54239424 0.36886287 3.45691490 -0.13472369
3.46772641 0.43693162 3.45691490 -0.12630457
3.38182230 0.49012118 3.45691490 -0.11641402
3.28760731 0.52662025 3.45691490 -0.10530550
3.18828984 0.54518593 3.45691490 -0.09328714
3.08725206 0.54518593 3.45691490 -0.08072127
2.98793459 0.52662025 3.45691490 -0.06802010
2.89371960 0.49012118 3.45691490 -0.05563641
2.80781549 0.43693162 3.45691490 -0.04404786
2.73314766 0.36886287 3.45691490 -0.03373511
2.67225876 0.28823294 3.45691490 -0.02515411
2.62722236 0.19778759 3.45691490 -0.01870515
2.59957201 0.10060682 3.45691490 -0.01470181
2.59024945 0.00000000 3.45691490 -0.01334441
2.59957201 -0.10060682 3.45691490 -0.01470181
2.62722236 -0.19778759 3.45691490 -0.01870515
2.67225876 -0.28823294 3.45691490 -0.02515411
2.73314766 -0.36886287 3.45691490 -0.03373511
2.80781549 -0.43693162 3.45691490 -0.04404786
2.89371960 -0.49012118 3.45691490 -0.05563641
2.98793459 -0.52662025 3.45691490 -0.06802010
3.08725206 -0.54518593 3.45691490 -0.08072127
3.18828984 -0.54518593 3.45691490 -0.09328714
3.28760731 -0.52662025 3.45691490 -0.10530550
3.38182230 -0.49012118 3.45691490 -0.11641402
3.46772641 -0.43693162 3.45691490 -0.12630457
3.54239424 -0.36886287 3.45691490 -0.13472369
3.60328314 -0.28823294 3.45691490 -0.14147064
3.64831960 -0.19778759 3.45691490 -0.14639425
3.67596989 -0.10060682 3.45691490 -0.14938952
3.79360662 0.00000000 3.43801106 -0.16190409
3.78592054 0.10011285 3.43801106 -0.16109751
3.76304231 0.19787914 3.43801106 -0.15868760
3.72550832 0.29100730 3.43801106 -0.15470422
3.67419820 0.37731451 3.43801106 -0.14919822
3.61031474 0.45477778 3.43801106 -0.14224307
3.53535523 0.52158145 3.43801106 -0.13393691
3.45107665 0.57615966 3.43801106 -0.12440493
3.35945447 0.61723322 3.43801106 -0.11380184
3.26263624 0.64383934 3.43801106 -0.10231407
3.16289125 0.65535444 3.43801106 -0.09016118
3.06255749 0.65150854 3.43801106 -0.07759619
2.96398663 0.63239186 3.43801106 -0.06490389
2.86948916 0.59845246 3.43801106 -0.05239695
2.78127996 0.55048579 3.43801106 -0.04040894
2.70142662 0.48961624 3.43801106 -0.02928425
2.63180080 0.41727050 3.43801106 -0.01936479
2.57403451 0.33514428 3.43801106 -0.01097417
2.52948172 0.24516258 3.43801106 -0.00440031
2.49918676 0.14943446 3.43801106 0.00012195
2.48385963 0.05020373 3.43801106 0.00242624
2.48385963 -0.05020373 3.43801106 0.00242624
2.49918676 -0.14943446 3.43801106 0.00012195
2.52948172 -0.24516258 3.43801106 -0.00440031
2.57403451 -0.33514428 3.43801106 -0.01097417
2.63180080 -0.41727050 3.43801106 -0.01936479
2.70142662 -0.48961624 3.43801106 -0.02928425
2.78127996 -0.55048579 3.43801106 -0.04040894
2.86948916 -0.59845246 3.43801106 -0.05239695
2.96398663 -0.63239186 3.43801106 -0.06490389
3.06255749 -0.65150854 3.43801106 -0.07759619
3.16289125 -0.65535444 3.43801106 -0.09016118
3.26263624 -0.64383934 3.43801106 -0.10231407
3.35945447 -0.61723322 3.43801106 -0.11380184
3.45107665 -0.57615966 3.43801106 -0.12440493
3.53535523 -0.52158145 3.43801106 -0.13393691
3.61031474 -0.45477778 3.43801106 -0.14224307
3.67419820 -0.37731451 3.43801106 -0.14919822
3.72550832 -0.29100730 3.43801106 -0.15470422
3.76304231 -0.19787914 3.43801106 -0.15868760
3.78592054 -0.10011285 3.43801106 -0.16109751
3.90127356 0.00000000 3.41571429 -0.17304462
3.89446120 0.10176494 3.41571429 -0.17234835
3.87414567 0.20171388 3.41571429 -0.17026511
3.84068956 0.29806323 3.41571429 -0.16681189
3.79468980 0.38909363 3.41571429 -0.16201764
3.73696733 0.47318065 3.41571429 -0.15592427
3.66855220 0.54882375 3.41571429 -0.14858803
3.59066523 0.61467311 3.41571429 -0.14008108
3.50469635 0.66955353 3.41571429 -0.13049339
3.41217970 0.71248582 3.41571429 -0.11993469
3.31476626 0.74270378 3.41571429 -0.10853637
3.21419427 0.75966814 3.41571429 -0.09645309
3.11225853 0.76307625 3.41571429 -0.08386400
3.01077805 0.75286721 3.41571429 -0.07097294
2.91156376 0.72922326 3.41571429 -0.05800760
2.81638615 0.69256627 3.41571429 -0.04521714
2.72694370 0.64355046 3.41571429 -0.03286793
2.64483241 0.58305045 3.41571429 -0.02123730
2.57151764 0.51214589 3.41571429 -0.01060521
2.50830766 0.43210208 3.41571429 -0.00124406
2.45633052 0.34434740 3.41571429 0.00659291
2.41651365 0.25044783 3.41571429 0.01268377
2.38956764 0.15207902 3.41571429 0.01684968
2.37597335 0.05099635 3.41571429 0.01896503
2.37597335 -0.05099635 3.41571429 0.01896503
2.38956764 -0.15207902 3.41571429 0.01684968
2.41651365 -0.25044783 3.41571429 0.01268377
2.45633052 -0.34434740 3.41571429 0.00659291
2.50830766 -0.43210208 3.41571429 -0.00124406
2.57151764 -0.51214589 3.41571429 -0.01060521
2.64483241 -0.58305045 3.41571429 -0.02123730
2.72694370 -0.64355046 3.41571429 -0.03286793
2.81638615 -0.69256627 3.41571429 -0.04521714
2.91156376 -0.72922326 3.41571429 -0.05800760
3.01077805 -0.75286721 3.41571429 -0.07097294
3.11225853 -0.76307625 3.41571429 -0.08386400
3.21419427 -0.75966814 3.41571429 -0.09645309
3.31476626 -0.74270378 3.41571429 -0.10853637
3.41217970 -0.71248582 3.41571429 -0.11993469
3.50469635 -0.66955353 3.41571429 -0.13049339
3.59066523 -0.61467311 3.41571429 -0.14008108
3.66855220 -0.54882375 3.41571429 -0.14858803
3.73696733 -0.47318065 3.41571429 -0.15592427
3.79468980 -0.38909363 3.41571429 -0.16201764
3.84068956 -0.29806323 3.41571429 -0.16681189
3.87414567 -0.20171388 3.41571429 -0.17026511
3.89446120 -0.10176494 3.41571429 -0.17234835
4.00818700 0.00000000 3.39004667 -0.18382384
4.00230154 0.10104914 3.39004667 -0.18323759
3.98472482 0.20073175 3.39004667 -0.18148190
3.95569449 0.29769982 3.39004667 -0.17856596
3.91560314 0.39064201 3.39004667 -0.17450547
3.86499297 0.47830143 3.39004667 -0.16932319
3.80454831 0.55949265 3.39004667 -0.16304968
3.73508669 0.63311768 3.39004667 -0.15572427
3.65754738 0.69818089 3.39004667 -0.14739618
3.57297897 0.75380242 3.39004667 -0.13812582
3.48252516 0.79923005 3.39004667 -0.12798614
3.38740909 0.83384944 3.39004667 -0.11706406
3.28891713 0.85719244 3.39004667 -0.10546186
3.18838112 0.86894345 3.39004667 -0.09329834
3.08716078 0.86894345 3.39004667 -0.08070975
2.98662477 0.85719244 3.39004667 -0.06785021
2.88813281 0.83384944 3.39004667 -0.05489150
2.79301679 0.79923005 3.39004667 -0.04202196
2.70256293 0.75380242 3.39004667 -0.02944442
2.61799451 0.69818089 3.39004667 -0.01737286
2.54045521 0.63311768 3.39004667 -0.00602789
2.47099359 0.55949265 3.39004667 0.00436909
2.41054893 0.47830143 3.39004667 0.01360285
2.35993876 0.39064201 3.39004667 0.02147199
2.31984741 0.29769982 3.39004667 0.02779715
2.29081708 0.20073175 3.39004667 0.03242883
2.27324036 0.10104914 3.39004667 0.03525453
2.26735490 0.00000000 3.39004667 0.03620434
2.27324036 -0.10104914 3.39004667 0.03525453
2.29081708 -0.20073175 3.39004667 0.03242883
2.31984741 -0.29769982 3.39004667 0.02779715
2.35993876 -0.39064201 3.39004667 0.02147199
2.41054893 -0.47830143 3.39004667 0.01360285
2.47099359 -0.55949265 3.39004667 0.00436909
2.54045521 -0.63311768 3.39004667 -0.00602789
2.61799451 -0.69818089 3.39004667 -0.01737286
2.70256293 -0.75380242 3.39004667 -0.02944442
2.79301679 -0.79923005 3.39004667 -0.04202196
2.88813281 -0.83384944 3.39004667 -0.05489150
2.98662477 -0.85719244 3.39004667 -0.06785021
3.08716078 -0.86894345 3.39004667 -0.08070975
3.18838112 -0.86894345 3.39004667 -0.09329834
3.28891713 -0.85719244 3.39004667 -0.10546186
3.38740909 -0.83384944 3.39004667 -0.11706406
3.48252516 -0.79923005 3.39004667 -0.12798614
3.57297897 -0.75380242 3.39004667 -0.13812582
3.65754738 -0.69818089 3.39004667 -0.14739618
3.73508669 -0.63311768 3.39004667 -0.15572427
3.80454831 -0.55949265 3.39004667 -0.16304968
3.86499297 -0.47830143 3.39004667 -0.16932319
3.91560314 -0.39064201 3.39004667 -0.17450547
3.95569449 -0.29769982 3.39004667 -0.17856596
3.98472482 -0.20073175 3.39004667 -0.18148190
4.00230154 -0.10104914 3.39004667 -0.18323759
4.00818700 0.00000000 3.39004667 -0.18382384
4.11424142 0.00000000 3.36103342 -0.19424915
4.10906602 0.10040167 3.36103342 -0.19374641
4.09359463 0.19973905 3.36103342 -0.19223989
4.06799130 0.29695916 3.36103342 -0.18973471
4.03252734 0.39103142 3.36103342 -0.18623967
3.98757878 0.48095865 3.36103342 -0.18176748
3.93362204 0.56578758 3.36103342 -0.17633529
3.87122911 0.64461908 3.36103342 -0.16996520
3.80106130 0.71661742 3.36103342 -0.16268493
3.72386247 0.78101943 3.36103342 -0.15452870
3.64045095 0.83714246 3.36103342 -0.14553805
3.55171082 0.88439151 3.36103342 -0.13576286
3.45858292 0.92226587 3.36103342 -0.12526237
3.36205426 0.95036395 3.36103342 -0.11410625
3.26314817 0.96838793 3.36103342 -0.10237560
3.16291305 0.97614678 3.36103342 -0.09016388
3.06241138 0.97355820 3.36103342 -0.07757763
2.96270856 0.96064967 3.36103342 -0.06473698
2.86486146 0.93755803 3.36103342 -0.05177567
2.76990726 0.90452801 3.36103342 -0.03884063
2.67885252 0.86190979 3.36103342 -0.02609095
2.59266244 0.81015512 3.36103342 -0.01369612
2.51225061 0.74981259 3.36103342 -0.00183338
2.43846947 0.68152187 3.36103342 0.00931566
2.37210110 0.60600683 3.36103342 0.01956927
2.31384903 0.52406799 3.36103342 0.02875058
2.26433071 0.43657389 3.36103342 0.03669310
2.22407108 0.34445200 3.36103342 0.04324641
2.19349693 0.24867883 3.36103342 0.04828186
2.17293226 0.15026960 3.36103342 0.05169777
2.16259516 0.05026749 3.36103342 0.05342373
2.16259516 -0.05026749 3.36103342 0.05342373
2.17293226 -0.15026960 3.36103342 0.05169777
2.19349693 -0.24867883 3.36103342 0.04828186
2.22407108 -0.34445200 3.36103342 0.04324641
2.26433071 -0.43657389 3.36103342 0.03669310
2.31384903 -0.52406799 3.36103342 0.02875058
2.37210110 -0.60600683 3.36103342 0.01956927
2.43846947 -0.68152187 3.36103342 0.00931566
2.51225061 -0.74981259 3.36103342 -0.00183338
2.59266244 -0.81015512 3.36103342 -0.01369612
2.67885252 -0.86190979 3.36103342 -0.02609095
2.76990726 -0.90452801 3.36103342 -0.03884063
2.86486146 -0.93755803 3.36103342 -0.05177567
2.96270856 -0.96064967 3.36103342 -0.06473698
3.06241138 -0.97355820 3.36103342 -0.07757763
3.16291305 -0.97614678 3.36103342 -0.09016388
3.26314817 -0.96838793 3.36103342 -0.10237560
3.36205426 -0.95036395 3.36103342 -0.11410625
3.45858292 -0.92226587 3.36103342 -0.12526237
3.55171082 -0.88439151 3.36103342 -0.13576286
3.64045095 -0.83714246 3.36103342 -0.14553805
3.72386247 -0.78101943 3.36103342 -0.15452870
3.80106130 -0.71661742 3.36103342 -0.16268493
3.87122911 -0.64461908 3.36103342 -0.16996520
3.93362204 -0.56578758 3.36103342 -0.17633529
3.98757878 -0.48095865 3.36103342 -0.18176748
4.03252734 -0.39103142 3.36103342 -0.18623967
4.06799130 -0.29695916 3.36103342 -0.18973471
4.09359463 -0.19973905 3.36103342 -0.19223989
4.10906602 -0.10040167 3.36103342 -0.19374641
4.21933222 0.00000000 3.32870330 -0.20432785
4.21457984 0.10127901 3.32870330 -0.20387734
4.20036440 0.20166797 3.32870330 -0.20252683
4.17681084 0.30028467 3.32870330 -0.20027940
4.14412617 0.39626246 3.32870330 -0.19714030
4.10259762 0.48875788 3.32870330 -0.19311721
4.05259013 0.57695808 3.32870330 -0.18822049
3.99454323 0.66008793 3.32870330 -0.18246354
3.92896692 0.73741693 3.32870330 -0.17586332
3.85643755 0.80826548 3.32870330 -0.16844085
3.77759256 0.87201093 3.32870330 -0.16022184
3.69312475 0.92809317 3.32870330 -0.15123742
3.60377649 0.97601924 3.32870330 -0.14152488
3.51033294 1.01536805 3.32870330 -0.13112852
3.41361531 1.04579377 3.32870330 -0.12010049
3.31447357 1.06702901 3.32870330 -0.10850167
3.21377897 1.07888718 3.32870330 -0.09640251
3.11241639 1.08126403 3.32870330 -0.08388377
3.01127659 1.07413871 3.32870330 -0.07103717
2.91124848 1.05757378 3.32870330 -0.05796581
2.81321103 1.03171491 3.32870330 -0.04478431
2.71802585 0.99678923 3.32870330 -0.03161859
2.62652935 0.95310376 3.32870330 -0.01860523
2.53952571 0.90104243 3.32870330 -0.00589024
2.45777946 0.84106265 3.32870330 0.00637270
2.38200898 0.77369159 3.32870330 0.01802472
2.31288021 0.69952130 3.32870330 0.02890475
2.25100058 0.61920355 3.32870330 0.03885330
2.19691393 0.53344428 3.32870330 0.04771654
2.15109556 0.44299707 3.32870330 0.05535085
2.11394808 0.34865678 3.32870330 0.06162742
2.08579803 0.25125248 3.32870330 0.06643675
2.06689281 0.15164016 3.32870330 0.06969269
2.05739842 0.05069523 3.32870330 0.07133585
2.05739842 -0.05069523 3.32870330 0.07133585
2.06689281 -0.15164016 3.32870330 0.06969269
2.08579803 -0.25125248 3.32870330 0.06643675
2.11394808 -0.34865678 3.32870330 0.06162742
2.15109556 -0.44299707 3.32870330 0.05535085
2.19691393 -0.53344428 3.32870330 0.04771654
2.25100058 -0.61920355 3.32870330 0.03885330
2.31288021 -0.69952130 3.32870330 0.02890475
2.38200898 -0.77369159 3.32870330 0.01802472
2.45777946 -0.84106265 3.32870330 0.00637270
2.53952571 -0.90104243 3.32870330 -0.00589024
2.62652935 -0.95310376 3.32870330 -0.01860523
2.71802585 -0.99678923 3.32870330 -0.03161859
2.81321103 -1.03171491 3.32870330 -0.04478431
2.91124848 -1.05757378 3.32870330 -0.05796581
3.01127659 -1.07413871 3.32870330 -0.07103717
3.11241639 -1.08126403 3.32870330 -0.08388377
3.21377897 -1.07888718 3.32870330 -0.09640251
3.31447357 -1.06702901 3.32870330 -0.10850167
3.41361531 -1.04579377 3.32870330 -0.12010049
3.51033294 -1.01536805 3.32870330 -0.13112852
3.60377649 -0.97601924 3.32870330 -0.14152488
3.69312475 -0.92809317 3.32870330 -0.15123742
3.77759256 -0.87201093 3.32870330 -0.16022184
3.85643755 -0.80826548 3.32870330 -0.16844085
3.92896692 -0.73741693 3.32870330 -0.17586332
3.99454323 -0.66008793 3.32870330 -0.18246354
4.05259013 -0.57695808 3.32870330 -0.18822049
4.10259762 -0.48875788 3.32870330 -0.19311721
4.14412617 -0.39626246 3.32870330 -0.19714030
4.17681084 -0.30028467 3.32870330 -0.20027940
4.20036440 -0.20166797 3.32870330 -0.20252683
4.21457984 -0.10127901 3.32870330 -0.20387734
4.32335561 0.00000000 3.29308810 -0.21406709
4.31908457 0.10054460 3.29308810 -0.21367173
4.30630209 0.20036479 3.29308810 -0.21248622
4.28510029 0.29874133 3.29308810 -0.21051225
4.25563201 0.39496544 3.29308810 -0.20775275
4.21810950 0.48834381 3.29308810 -0.20421199
4.17280311 0.57820366 3.29308810 -0.19989577
4.12003930 0.66389753 3.29308810 -0.19481164
4.06019822 0.74480800 3.29308810 -0.18896919
3.99371104 0.82035209 3.29308810 -0.18238044
3.92105679 0.88998560 3.29308810 -0.17506013
3.84275891 0.95320669 3.29308810 -0.16702631
3.75938162 1.00955991 3.29308810 -0.15830073
3.67152560 1.05863923 3.29308810 -0.14890949
3.57982388 1.10009104 3.29308810 -0.13888359
3.48493715 1.13361662 3.29308810 -0.12825960
3.38754906 1.15897452 3.29308810 -0.11708034
3.28836134 1.17598195 3.29308810 -0.10539552
3.18808859 1.18451641 3.29308810 -0.09326246
3.08745331 1.18451641 3.29308810 -0.08074665
2.98718056 1.17598195 3.29308810 -0.06792231
2.88799284 1.15897452 3.29308810 -0.05487282
2.79060475 1.13361662 3.29308810 -0.04169093
2.69571802 1.10009104 3.29308810 -0.02847876
2.60401630 1.05863923 3.29308810 -0.01534756
2.51616027 1.00955991 3.29308810 -0.00241701
2.43278299 0.95320669 3.29308810 0.01018574
2.35448511 0.88998560 3.29308810 0.02232760
2.28183086 0.82035209 3.29308810 0.03387145
2.21534368 0.74480800 3.29308810 0.04467856
2.15550260 0.66389753 3.29308810 0.05461143
2.10273879 0.57820366 3.29308810 0.06353696
2.05743240 0.48834381 3.29308810 0.07132996
2.01990988 0.39496544 3.29308810 0.07787663
1.99044161 0.29874133 3.29308810 0.08307813
1.96923981 0.20036479 3.29308810 0.08685374
1.95645733 0.10054460 3.29308810 0.08914366
1.95218629 0.00000000 3.29308810 0.08991110
1.95645733 -0.10054460 3.29308810 0.08914366
1.96923981 -0.20036479 3.29308810 0.08685374
1.99044161 -0.29874133 3.29308810 0.08307813
2.01990988 -0.39496544 3.29308810 0.07787663
2.05743240 -0.48834381 3.29308810 0.07132996
2.10273879 -0.57820366 3.29308810 0.06353696
2.15550260 -0.66389753 3.29308810 0.05461143
2.21534368 -0.74480800 3.29308810 0.04467856
2.28183086 -0.82035209 3.29308810 0.03387145
2.35448511 -0.88998560 3.29308810 0.02232760
2.43278299 -0.95320669 3.29308810 0.01018574
2.51616027 -1.00955991 3.29308810 -0.00241701
2.60401630 -1.05863923 3.29308810 -0.01534756
2.69571802 -1.10009104 3.29308810 -0.02847876
2.79060475 -1.13361662 3.29308810 -0.04169093
2.88799284 -1.15897452 3.29308810 -0.05487282
2.98718056 -1.17598195 3.29308810 -0.06792231
3.08745331 -1.18451641 3.29308810 -0.08074665
3.18808859 -1.18451641 3.29308810 -0.09326246
3.28836134 -1.17598195 3.29308810 -0.10539552
3.38754906 -1.15897452 3.29308810 -0.11708034
3.48493715 -1.13361662 3.29308810 -0.12825960
3.57982388 -1.10009104 3.29308810 -0.13888359
3.67152560 -1.05863923 3.29308810 -0.14890949
3.75938162 -1.00955991 3.29308810 -0.15830073
3.84275891 -0.95320669 3.29308810 -0.16702631
3.92105679 -0.88998560 3.29308810 -0.17506013
3.99371104 -0.82035209 3.29308810 -0.18238044
4.06019822 -0.74480800 3.29308810 -0.18896919
4.12003930 -0.66389753 3.29308810 -0.19481164
4.17280311 -0.57820366 3.29308810 -0.19989577
4.21810950 -0.48834381 3.29308810 -0.20421199
4.25563201 -0.39496544 3.29308810 -0.20775275
4.28510029 -0.29874133 3.29308810 -0.21051225
4.30630209 -0.20036479 3.29308810 -0.21248622
4.31908457 -0.10054460 3.29308810 -0.21367173
4.42620899 0.00000000 3.25422307 -0.22347385
4.42223720 0.10108969 3.25422307 -0.22311461
4.41034622 0.20155612 3.25422307 -0.22203718
4.39060935 0.30077989 3.25422307 -0.22024253
4.36314835 0.39814926 3.25422307 -0.21773227
4.32813249 0.49306390 3.25422307 -0.21450881
4.28577769 0.58493866 3.25422307 -0.21057546
4.23634499 0.67320702 3.25422307 -0.20593656
4.18013925 0.75732489 3.25422307 -0.20059773
4.11750692 0.83677357 3.25422307 -0.19456605
4.04883425 0.91106330 3.25422307 -0.18785038
3.97454452 0.97973597 3.25422307 -0.18046165
3.89509584 1.04236830 3.25422307 -0.17241326
3.81097797 1.09857404 3.25422307 -0.16372143
3.72270961 1.14800674 3.25422307 -0.15440571
3.63083485 1.19036154 3.25422307 -0.14448939
3.53592023 1.22537740 3.25422307 -0.13400012
3.43855087 1.25283840 3.25422307 -0.12297036
3.33932706 1.27257527 3.25422307 -0.11143803
3.23886064 1.28446625 3.25422307 -0.09944707
3.13777095 1.28843804 3.25422307 -0.08704797
3.03668126 1.28446625 3.25422307 -0.07429833
2.93621484 1.27257527 3.25422307 -0.06126337
2.83699108 1.25283840 3.25422307 -0.04801625
2.73962167 1.22537740 3.25422307 -0.03463833
2.64470705 1.19036154 3.25422307 -0.02121932
2.55283229 1.14800674 3.25422307 -0.00785702
2.46456393 1.09857404 3.25422307 0.00534296
2.38044606 1.04236830 3.25422307 0.01826804
2.30099738 0.97973597 3.25422307 0.03079961
2.22670765 0.91106330 3.25422307 0.04281457
2.15803498 0.83677357 3.25422307 0.05418704
2.09540265 0.75732489 3.25422307 0.06479065
2.03919690 0.67320702 3.25422307 0.07450096
1.98976426 0.58493866 3.25422307 0.08319832
1.94740941 0.49306390 3.25422307 0.09077079
1.91239355 0.39814926 3.25422307 0.09711716
1.88493255 0.30077989 3.25422307 0.10214988
1.86519573 0.20155612 3.25422307 0.10579768
1.85330470 0.10108969 3.25422307 0.10800795
1.84933291 0.00000000 3.25422307 0.10874833
1.85330470 -0.10108969 3.25422307 0.10800795
1.86519573 -0.20155612 3.25422307 0.10579768
1.88493255 -0.30077989 3.25422307 0.10214988
1.91239355 -0.39814926 3.25422307 0.09711716
1.94740941 -0.49306390 3.25422307 0.09077079
1.98976426 -0.58493866 3.25422307 0.08319832
2.03919690 -0.67320702 3.25422307 0.07450096
2.09540265 -0.75732489 3.25422307 0.06479065
2.15803498 -0.83677357 3.25422307 0.05418704
2.22670765 -0.91106330 3.25422307 0.04281457
2.30099738 -0.97973597 3.25422307 0.03079961
2.38044606 -1.04236830 3.25422307 0.01826804
2.46456393 -1.09857404 3.25422307 0.00534296
2.55283229 -1.14800674 3.25422307 -0.00785702
2.64470705 -1.19036154 3.25422307 -0.02121932
2.73962167 -1.22537740 3.25422307 -0.03463833
2.83699108 -1.25283840 3.25422307 -0.04801625
2.93621484 -1.27257527 3.25422307 -0.06126337
3.03668126 -1.28446625 3.25422307 -0.07429833
3.13777095 -1.28843804 3.25422307 -0.08704797
3.23886064 -1.28446625 3.25422307 -0.09944707
3.33932706 -1.27257527 3.25422307 -0.11143803
3.43855087 -1.25283840 3.25422307 -0.12297036
3.53592023 -1.22537740 3.25422307 -0.13400012
3.63083485 -1.19036154 3.25422307 -0.14448939
3.72270961 -1.14800674 3.25422307 -0.15440571
3.81097797 -1.09857404 3.25422307 -0.16372143
3.89509584 -1.04236830 3.25422307 -0.17241326
3.97454452 -0.97973597 3.25422307 -0.18046165
4.04883425 -0.91106330 3.25422307 -0.18785038
4.11750692 -0.83677357 3.25422307 -0.19456605
4.18013925 -0.75732489 3.25422307 -0.20059773
4.23634499 -0.67320702 3.25422307 -0.20593656
4.28577769 -0.58493866 3.25422307 -0.21057546
4.32813249 -0.49306390 3.25422307 -0.21450881
4.36314835 -0.39814926 3.25422307 -0.21773227
4.39060935 -0.30077989 3.25422307 -0.22024253
4.41034622 -0.20155612 3.25422307 -0.22203718
4.42223720 -0.10108969 3.25422307 -0.22311461
4.52779087 0.00000000 3.21214651 -0.23255497
4.52416743 0.10030072 3.21214651 -0.23223453
4.51331592 0.20007851 3.21214651 -0.23127336
4.49529300 0.29881319 3.21214651 -0.22967191
4.47019254 0.39599000 3.21214651 -0.22743092
4.43814548 0.49110230 3.21214651 -0.22455157
4.39931886 0.58365424 3.21214651 -0.22103545
4.35391511 0.67316320 3.21214651 -0.21688475
4.30217096 0.75916267 3.21214651 -0.21210233
4.24435615 0.84120421 3.21214651 -0.20669191
4.18077215 0.91886009 3.21214651 -0.20065823
4.11175043 0.99172548 3.21214651 -0.19400724
4.03765078 1.05942045 3.21214651 -0.18674640
3.95885960 1.12159208 3.21214651 -0.17888486
3.87578765 1.17791625 3.21214651 -0.17043387
3.78886800 1.22809932 3.21214651 -0.16140700
3.69855384 1.27187967 3.21214651 -0.15182058
3.60531603 1.30902901 3.21214651 -0.14169410
3.50964067 1.33935365 3.21214651 -0.13105056
3.41202651 1.36269560 3.21214651 -0.11991699
3.31298257 1.37893303 3.21214651 -0.10832489
3.21302511 1.38798132 3.21214651 -0.09631068
3.11267531 1.38979338 3.21214651 -0.08391620
3.01245639 1.38435963 3.21214651 -0.07118914
2.91289078 1.37170854 3.21214651 -0.05818345
2.81449757 1.35190594 3.21214651 -0.04495974
2.71778973 1.32505513 3.21214651 -0.03158547
2.62327152 1.29129613 3.21214651 -0.01813520
2.53143571 1.25080488 3.21214651 -0.00469053
2.44276099 1.20379258 3.21214651 0.00866005
2.35770976 1.15050419 3.21214651 0.02182151
2.27672541 1.09121764 3.21214651 0.03469296
2.20023012 1.02624195 3.21214651 0.04716852
2.12862274 0.95591597 3.21214651 0.05913850
2.06227664 0.88060620 3.21214651 0.07049092
2.00153760 0.80070544 3.21214651 0.08111328
1.94672243 0.71663012 3.21214651 0.09089454
1.89811678 0.62881865 3.21214651 0.09972747
1.85597413 0.53772882 3.21214651 0.10751094
1.82051419 0.44383549 3.21214651 0.11415240
1.79192181 0.34762821 3.21214651 0.11957033
1.77034604 0.24960857 3.21214651 0.12369642
1.75589940 0.15028759 3.21214651 0.12647752
1.74865719 0.05018307 3.21214651 0.12787731
1.74865719 -0.05018307 3.21214651 0.12787731
1.75589940 -0.15028759 3.21214651 0.12647752
1.77034604 -0.24960857 3.21214651 0.12369642
1.79192181 -0.34762821 3.21214651 0.11957033
1.82051419 -0.44383549 3.21214651 0.11415240
1.85597413 -0.53772882 3.21214651 0.10751094
1.89811678 -0.62881865 3.21214651 0.09972747
1.94672243 -0.71663012 3.21214651 0.09089454
2.00153760 -0.80070544 3.21214651 0.08111328
2.06227664 -0.88060620 3.21214651 0.07049092
2.12862274 -0.95591597 3.21214651 0.05913850
2.20023012 -1.02624195 3.21214651 0.04716852
2.27672541 -1.09121764 3.21214651 0.03469296
2.35770976 -1.15050419 3.21214651 0.02182151
2.44276099 -1.20379258 3.21214651 0.00866005
2.53143571 -1.25080488 3.21214651 -0.00469053
2.62327152 -1.29129613 3.21214651 -0.01813520
2.71778973 -1.32505513 3.21214651 -0.03158547
2.81449757 -1.35190594 3.21214651 -0.04495974
2.91289078 -1.37170854 3.21214651 -0.05818345
3.01245639 -1.38435963 3.21214651 -0.07118914
3.11267531 -1.38979338 3.21214651 -0.08391620
3.21302511 -1.38798132 3.21214651 -0.09631068
3.31298257 -1.37893303 3.21214651 -0.10832489
3.41202651 -1.36269560 3.21214651 -0.11991699
3.50964067 -1.33935365 3.21214651 -0.13105056
3.60531603 -1.30902901 3.21214651 -0.14169410
3.69855384 -1.27187967 3.21214651 -0.15182058
3.78886800 -1.22809932 3.21214651 -0.16140700
3.87578765 -1.17791625 3.21214651 -0.17043387
3.95885960 -1.12159208 3.21214651 -0.17888486
4.03765078 -1.05942045 3.21214651 -0.18674640
4.11175043 -0.99172548 3.21214651 -0.19400724
4.18077215 -0.91886009 3.21214651 -0.20065823
4.24435615 -0.84120421 3.21214651 -0.20669191
4.30217096 -0.75916267 3.21214651 -0.21210233
4.35391511 -0.67316320 3.21214651 -0.21688475
4.39931886 -0.58365424 3.21214651 -0.22103545
4.43814548 -0.49110230 3.21214651 -0.22455157
4.47019254 -0.39599000 3.21214651 -0.22743092
4.49529300 -0.29881319 3.21214651 -0.22967191
4.51331592 -0.20007851 3.21214651 -0.23127336
4.52416743 -0.10030072 3.21214651 -0.23223453
4.52779087 0.00000000 3.21214651 -0.23255497
4.62800096 0.00000000 3.16689992 -0.24131709
4.62460115 0.10060505 3.16689992 -0.24102294
4.61441730 0.20075106 3.16689992 -0.24014054
4.59749586 0.29998109 3.16689992 -0.23867002
4.57391399 0.39784238 3.16689992 -0.23661165
4.54377937 0.49388840 3.16689992 -0.23396585
4.50722943 0.58768090 3.16689992 -0.23073325
4.46443097 0.67879201 3.16689992 -0.22691477
4.41557931 0.76680589 3.16689992 -0.22251170
4.36089723 0.85132101 3.16689992 -0.21752580
4.30063434 0.93195177 3.16689992 -0.21195946
4.23506560 1.00833026 3.16689992 -0.20581580
4.16449011 1.08010794 3.16689992 -0.19909888
4.08922998 1.14695733 3.16689992 -0.19181388
4.00962853 1.20857343 3.16689992 -0.18396730
3.92604899 1.26467514 3.16689992 -0.17556721
3.83887274 1.31500638 3.16689992 -0.16662356
3.74849751 1.35933755 3.16689992 -0.15714839
3.65533564 1.39746634 3.16689992 -0.14715625
3.55981231 1.42921886 3.16689992 -0.13666447
3.46236325 1.45445013 3.16689992 -0.12569356
3.36343319 1.47304514 3.16689992 -0.11426762
3.26347345 1.48491898 3.16689992 -0.10241469
3.16294014 1.49001744 3.16689992 -0.09016722
3.06229205 1.48831730 3.16689992 -0.07756248
2.96198830 1.47982628 3.16689992 -0.06464290
2.86248667 1.46458318 3.16689992 -0.05145652
2.76424105 1.44265752 3.16689992 -0.03805727
2.66769974 1.41414938 3.16689992 -0.02450528
2.57330329 1.37918878 3.16689992 -0.01086701
2.48148241 1.33793525 3.16689992 0.00278463
2.39265597 1.29057703 3.16689992 0.01637040
2.30722934 1.23733018 3.16689992 0.02980493
2.22559225 1.17843770 3.16689992 0.04299721
2.14811725 1.11416831 3.16689992 0.05585117
2.07515782 1.04481517 3.16689992 0.06826666
2.00704686 0.97069482 3.16689992 0.08014054
1.94409512 0.89214538 3.16689992 0.09136812
1.88658983 0.80952529 3.16689992 0.10184475
1.83479340 0.72321155 3.16689992 0.11146771
1.78894217 0.63359791 3.16689992 0.12013821
1.74924532 0.54109338 3.16689992 0.12776349