ITEM: TIMESTEP
0
ITEM: NUMBER OF ATOMS
2
ITEM: BOX BOUNDS pp pp pp
-2.5000000000000000e+01 2.5000000000000000e+01
-2.5000000000000000e+01 2.5000000000000000e+01
-2.5000000000000000e+01 2.5000000000000000e+01
ITEM: ATOMS element x y z q 
Cl 3.1378 0 0 -0.25 
H 1.8622 0 0 0.25 
