ITEM: TIMESTEP
0
ITEM: NUMBER OF ATOMS
14341
ITEM: BOX BOUNDS pp pp pp
-1.0000000000000000e+01 1.0000000000000000e+01
-1.0000000000000000e+01 1.0000000000000000e+01
-1.0000000000000000e+01 1.0000000000000000e+01
ITEM: ATOMS x y z q
3.13777095 0.00000000 3.50000578 -0.06217890
3.24770879 0.00000000 3.49827876 -0.07179932
3.19273985 0.09520896 3.49827876 -0.06702520
3.08280205 0.09520896 3.49827876 -0.05725857
3.02783311 0.00000000 3.49827876 -0.05226232
3.08280205 -0.09520896 3.49827876 -0.05725857
3.19273985 -0.09520896 3.49827876 -0.06702520
3.24770879 0.00000000 3.49827876 -0.07179932
3.35753810 0.00000000 3.49309933 -0.08112898
3.33236510 0.10213090 3.49309933 -0.07901473
3.26261296 0.18086485 3.49309933 -0.07308157
3.16426097 0.21816483 3.49309933 -0.06452350
3.05984043 0.20548589 3.49309933 -0.05518088
2.97327284 0.14573260 3.49309933 -0.04722618
2.92438980 0.05259373 3.49309933 -0.04264726
2.92438980 -0.05259373 3.49309933 -0.04264726
2.97327284 -0.14573260 3.49309933 -0.04722618
3.05984043 -0.20548589 3.49309933 -0.05518088
3.16426097 -0.21816483 3.49309933 -0.06452350
3.26261296 -0.18086485 3.49309933 -0.07308157
3.33236510 -0.10213090 3.49309933 -0.07901473
3.35753810 0.00000000 3.49309933 -0.08112898
3.46715061 0.00000000 3.48447264 -0.09017330
3.45102960 0.10178390 3.48447264 -0.08885936
3.40424470 0.19360450 3.48447264 -0.08501468
3.33137544 0.26647372 3.48447264 -0.07893132
3.23955486 0.31325865 3.48447264 -0.07109564
3.13777095 0.32937964 3.48447264 -0.06217890
3.03598703 0.31325865 3.48447264 -0.05300832
2.94416646 0.26647372 3.48447264 -0.04450747
2.87129720 0.19360450 3.48447264 -0.03760069
2.82451229 0.10178390 3.48447264 -0.03308885
2.80839129 0.00000000 3.48447264 -0.03151984
2.82451229 -0.10178390 3.48447264 -0.03308885
2.87129720 -0.19360450 3.48447264 -0.03760069
2.94416646 -0.26647372 3.48447264 -0.04450747
3.03598703 -0.31325865 3.48447264 -0.05300832
3.13777095 -0.32937964 3.48447264 -0.06217890
3.23955486 -0.31325865 3.48447264 -0.07109564
3.33137544 -0.26647372 3.48447264 -0.07893132
3.40424470 -0.19360450 3.48447264 -0.08501468
3.45102960 -0.10178390 3.48447264 -0.08885936
3.57643799 0.00000000 3.47240719 -0.09893777
3.56461369 0.10116358 3.47240719 -0.09800133
3.52977813 0.19687341 3.47240719 -0.09522595
3.47380940 0.28196974 3.47240719 -0.09071442
3.39972473 0.35186501 3.47240719 -0.08464073
3.31151807 0.40279114 3.47240719 -0.07725306
3.21394471 0.43200270 3.47240719 -0.06887532
3.11226472 0.43792489 3.47240719 -0.05990512
3.01195981 0.42023843 3.47240719 -0.05080515
2.91843740 0.37989680 3.47240719 -0.04208531
2.83673935 0.31907484 3.47240719 -0.03427394
2.77127000 0.24105148 3.47240719 -0.02787853
2.72555879 0.15003297 3.47240719 -0.02333933
2.70207000 0.05092614 3.47240719 -0.02098270
2.70207000 -0.05092614 3.47240719 -0.02098270
2.72555879 -0.15003297 3.47240719 -0.02333933
2.77127000 -0.24105148 3.47240719 -0.02787853
2.83673935 -0.31907484 3.47240719 -0.03427394
2.91843740 -0.37989680 3.47240719 -0.04208531
3.01195981 -0.42023843 3.47240719 -0.05080515
3.11226472 -0.43792489 3.47240719 -0.05990512
3.21394471 -0.43200270 3.47240719 -0.06887532
3.31151807 -0.40279114 3.47240719 -0.07725306
3.39972473 -0.35186501 3.47240719 -0.08464073
3.47380940 -0.28196974 3.47240719 -0.09071442
3.52977813 -0.19687341 3.47240719 -0.09522595
3.56461369 -0.10116358 3.47240719 -0.09800133
3.68529251 0.00000000 3.45691490 -0.10742787
3.67596989 0.10060682 3.45691490 -0.10670985
3.64831960 0.19778759 3.45691490 -0.10457031
3.60328314 0.28823294 3.45691490 -0.10105334
3.54239424 0.36886287 3.45691490 -0.09623395
3.46772641 0.43693162 3.45691490 -0.09022013
3.38182230 0.49012118 3.45691490 -0.08315525
3.28760731 0.52662025 3.45691490 -0.07522037
3.18828984 0.54518593 3.45691490 -0.06663558
3.08725206 0.54518593 3.45691490 -0.05765969
2.98793459 0.52662025 3.45691490 -0.04858718
2.89371960 0.49012118 3.45691490 -0.03974142
2.80781549 0.43693162 3.45691490 -0.03146366
2.73314766 0.36886287 3.45691490 -0.02409720
2.67225876 0.28823294 3.45691490 -0.01796774
2.62722236 0.19778759 3.45691490 -0.01336120
2.59957201 0.10060682 3.45691490 -0.01050160
2.59024945 0.00000000 3.45691490 -0.00953199
2.59957201 -0.10060682 3.45691490 -0.01050160
2.62722236 -0.19778759 3.45691490 -0.01336120
2.67225876 -0.28823294 3.45691490 -0.01796774
2.73314766 -0.36886287 3.45691490 -0.02409720
2.80781549 -0.43693162 3.45691490 -0.03146366
2.89371960 -0.49012118 3.45691490 -0.03974142
2.98793459 -0.52662025 3.45691490 -0.04858718
3.08725206 -0.54518593 3.45691490 -0.05765969
3.18828984 -0.54518593 3.45691490 -0.06663558
3.28760731 -0.52662025 3.45691490 -0.07522037
3.38182230 -0.49012118 3.45691490 -0.08315525
3.46772641 -0.43693162 3.45691490 -0.09022013
3.54239424 -0.36886287 3.45691490 -0.09623395
3.60328314 -0.28823294 3.45691490 -0.10105334
3.64831960 -0.19778759 3.45691490 -0.10457031
3.67596989 -0.10060682 3.45691490 -0.10670985
3.79360662 0.00000000 3.43801106 -0.11564908
3.78592054 0.10011285 3.43801106 -0.11507294
3.76304231 0.19787914 3.43801106 -0.11335152
3.72550832 0.29100730 3.43801106 -0.11050617
3.67419820 0.37731451 3.43801106 -0.10657320
3.61031474 0.45477778 3.43801106 -0.10160510
3.53535523 0.52158145 3.43801106 -0.09567196
3.45107665 0.57615966 3.43801106 -0.08886320
3.35945447 0.61723322 3.43801106 -0.08128935
3.26263624 0.64383934 3.43801106 -0.07308357
3.16289125 0.65535444 3.43801106 -0.06440269
3.06255749 0.65150854 3.43801106 -0.05542743
2.96398663 0.63239186 3.43801106 -0.04636124
2.86948916 0.59845246 3.43801106 -0.03742746
2.78127996 0.55048579 3.43801106 -0.02886435
2.70142662 0.48961624 3.43801106 -0.02091792
2.63180080 0.41727050 3.43801106 -0.01383239
2.57403451 0.33514428 3.43801106 -0.00783892
2.52948172 0.24516258 3.43801106 -0.00314317
2.49918676 0.14943446 3.43801106 0.00008711
2.48385963 0.05020373 3.43801106 0.00173308
2.48385963 -0.05020373 3.43801106 0.00173308
2.49918676 -0.14943446 3.43801106 0.00008711
2.52948172 -0.24516258 3.43801106 -0.00314317
2.57403451 -0.33514428 3.43801106 -0.00783892
2.63180080 -0.41727050 3.43801106 -0.01383239
2.70142662 -0.48961624 3.43801106 -0.02091792
2.78127996 -0.55048579 3.43801106 -0.02886435
2.86948916 -0.59845246 3.43801106 -0.03742746
2.96398663 -0.63239186 3.43801106 -0.04636124
3.06255749 -0.65150854 3.43801106 -0.05542743
3.16289125 -0.65535444 3.43801106 -0.06440269
3.26263624 -0.64383934 3.43801106 -0.07308357
3.35945447 -0.61723322 3.43801106 -0.08128935
3.45107665 -0.57615966 3.43801106 -0.08886320
3.53535523 -0.52158145 3.43801106 -0.09567196
3.61031474 -0.45477778 3.43801106 -0.10160510
3.67419820 -0.37731451 3.43801106 -0.10657320
3.72550832 -0.29100730 3.43801106 -0.11050617
3.76304231 -0.19787914 3.43801106 -0.11335152
3.78592054 -0.10011285 3.43801106 -0.11507294
3.90127356 0.00000000 3.41571429 -0.12360683
3.89446120 0.10176494 3.41571429 -0.12310948
3.87414567 0.20171388 3.41571429 -0.12162141
3.84068956 0.29806323 3.41571429 -0.11915476
3.79468980 0.38909363 3.41571429 -0.11573019
3.73696733 0.47318065 3.41571429 -0.11137766
3.66855220 0.54882375 3.41571429 -0.10613734
3.59066523 0.61467311 3.41571429 -0.10006077
3.50469635 0.66955353 3.41571429 -0.09321223
3.41217970 0.71248582 3.41571429 -0.08567008
3.31476626 0.74270378 3.41571429 -0.07752819
3.21419427 0.75966814 3.41571429 -0.06889704
3.11225853 0.76307625 3.41571429 -0.05990457
3.01077805 0.75286721 3.41571429 -0.05069641
2.91156376 0.72922326 3.41571429 -0.04143519
2.81638615 0.69256627 3.41571429 -0.03229888
2.72694370 0.64355046 3.41571429 -0.02347776
2.64483241 0.58305045 3.41571429 -0.01516993
2.57151764 0.51214589 3.41571429 -0.00757537
2.50830766 0.43210208 3.41571429 -0.00088864
2.45633052 0.34434740 3.41571429 0.00470935
2.41651365 0.25044783 3.41571429 0.00906010
2.38956764 0.15207902 3.41571429 0.01203583
2.37597335 0.05099635 3.41571429 0.01354684
2.37597335 -0.05099635 3.41571429 0.01354684
2.38956764 -0.15207902 3.41571429 0.01203583
2.41651365 -0.25044783 3.41571429 0.00906010
2.45633052 -0.34434740 3.41571429 0.00470935
2.50830766 -0.43210208 3.41571429 -0.00088864
2.57151764 -0.51214589 3.41571429 -0.00757537
2.64483241 -0.58305045 3.41571429 -0.01516993
2.72694370 -0.64355046 3.41571429 -0.02347776
2.81638615 -0.69256627 3.41571429 -0.03229888
2.91156376 -0.72922326 3.41571429 -0.04143519
3.01077805 -0.75286721 3.41571429 -0.05069641
3.11225853 -0.76307625 3.41571429 -0.05990457
3.21419427 -0.75966814 3.41571429 -0.06889704
3.31476626 -0.74270378 3.41571429 -0.07752819
3.41217970 -0.71248582 3.41571429 -0.08567008
3.50469635 -0.66955353 3.41571429 -0.09321223
3.59066523 -0.61467311 3.41571429 -0.10006077
3.66855220 -0.54882375 3.41571429 -0.10613734
3.73696733 -0.47318065 3.41571429 -0.11137766
3.79468980 -0.38909363 3.41571429 -0.11573019
3.84068956 -0.29806323 3.41571429 -0.11915476
3.87414567 -0.20171388 3.41571429 -0.12162141
3.89446120 -0.10176494 3.41571429 -0.12310948
4.00818700 0.00000000 3.39004667 -0.13130649
4.00230154 0.10104914 3.39004667 -0.13088773
3.98472482 0.20073175 3.39004667 -0.12963363
3.95569449 0.29769982 3.39004667 -0.12755076
3.91560314 0.39064201 3.39004667 -0.12465033
3.86499297 0.47830143 3.39004667 -0.12094859
3.80454831 0.55949265 3.39004667 -0.11646739
3.73508669 0.63311768 3.39004667 -0.11123480
3.65754738 0.69818089 3.39004667 -0.10528600
3.57297897 0.75380242 3.39004667 -0.09866412
3.48252516 0.79923005 3.39004667 -0.09142128
3.38740909 0.83384944 3.39004667 -0.08361957
3.28891713 0.85719244 3.39004667 -0.07533205
3.18838112 0.86894345 3.39004667 -0.06664357
3.08716078 0.86894345 3.39004667 -0.05765147
2.98662477 0.85719244 3.39004667 -0.04846582
2.88813281 0.83384944 3.39004667 -0.03920933
2.79301679 0.79923005 3.39004667 -0.03001655
2.70256293 0.75380242 3.39004667 -0.02103233
2.61799451 0.69818089 3.39004667 -0.01240954
2.54045521 0.63311768 3.39004667 -0.00430576
2.47099359 0.55949265 3.39004667 0.00312087
2.41054893 0.47830143 3.39004667 0.00971660
2.35993876 0.39064201 3.39004667 0.01533758
2.31984741 0.29769982 3.39004667 0.01985567
2.29081708 0.20073175 3.39004667 0.02316411
2.27324036 0.10104914 3.39004667 0.02518252
2.26735490 0.00000000 3.39004667 0.02586098
2.27324036 -0.10104914 3.39004667 0.02518252
2.29081708 -0.20073175 3.39004667 0.02316411
2.31984741 -0.29769982 3.39004667 0.01985567
2.35993876 -0.39064201 3.39004667 0.01533758
2.41054893 -0.47830143 3.39004667 0.00971660
2.47099359 -0.55949265 3.39004667 0.00312087
2.54045521 -0.63311768 3.39004667 -0.00430576
2.61799451 -0.69818089 3.39004667 -0.01240954
2.70256293 -0.75380242 3.39004667 -0.02103233
2.79301679 -0.79923005 3.39004667 -0.03001655
2.88813281 -0.83384944 3.39004667 -0.03920933
2.98662477 -0.85719244 3.39004667 -0.04846582
3.08716078 -0.86894345 3.39004667 -0.05765147
3.18838112 -0.86894345 3.39004667 -0.06664357
3.28891713 -0.85719244 3.39004667 -0.07533205
3.38740909 -0.83384944 3.39004667 -0.08361957
3.48252516 -0.79923005 3.39004667 -0.09142128
3.57297897 -0.75380242 3.39004667 -0.09866412
3.65754738 -0.69818089 3.39004667 -0.10528600
3.73508669 -0.63311768 3.39004667 -0.11123480
3.80454831 -0.55949265 3.39004667 -0.11646739
3.86499297 -0.47830143 3.39004667 -0.12094859
3.91560314 -0.39064201 3.39004667 -0.12465033
3.95569449 -0.29769982 3.39004667 -0.12755076
3.98472482 -0.20073175 3.39004667 -0.12963363
4.00230154 -0.10104914 3.39004667 -0.13088773
4.00818700 0.00000000 3.39004667 -0.13130649
4.11424142 0.00000000 3.36103342 -0.13875336
4.10906602 0.10040167 3.36103342 -0.13839425
4.09359463 0.19973905 3.36103342 -0.13731813
4.06799130 0.29695916 3.36103342 -0.13552867
4.03252734 0.39103142 3.36103342 -0.13303213
3.98757878 0.48095865 3.36103342 -0.12983763
3.93362204 0.56578758 3.36103342 -0.12595738
3.87122911 0.64461908 3.36103342 -0.12140718
3.80106130 0.71661742 3.36103342 -0.11620684
3.72386247 0.78101943 3.36103342 -0.11038080
3.64045095 0.83714246 3.36103342 -0.10395872
3.55171082 0.88439151 3.36103342 -0.09697624
3.45858292 0.92226587 3.36103342 -0.08947568
3.36205426 0.95036395 3.36103342 -0.08150679
3.26314817 0.96838793 3.36103342 -0.07312752
3.16291305 0.97614678 3.36103342 -0.06440461
3.06241138 0.97355820 3.36103342 -0.05541418
2.96270856 0.96064967 3.36103342 -0.04624202
2.86486146 0.93755803 3.36103342 -0.03698368
2.76990726 0.90452801 3.36103342 -0.02774410
2.67885252 0.86190979 3.36103342 -0.01863693
2.59266244 0.81015512 3.36103342 -0.00978322
2.51225061 0.74981259 3.36103342 -0.00130959
2.43846947 0.68152187 3.36103342 0.00665423
2.37210110 0.60600683 3.36103342 0.01397845
2.31384903 0.52406799 3.36103342 0.02053672
2.26433071 0.43657389 3.36103342 0.02621011
2.22407108 0.34445200 3.36103342 0.03089118
2.19349693 0.24867883 3.36103342 0.03448803
2.17293226 0.15026960 3.36103342 0.03692803
2.16259516 0.05026749 3.36103342 0.03816090
2.16259516 -0.05026749 3.36103342 0.03816090
2.17293226 -0.15026960 3.36103342 0.03692803
2.19349693 -0.24867883 3.36103342 0.03448803
2.22407108 -0.34445200 3.36103342 0.03089118
2.26433071 -0.43657389 3.36103342 0.02621011
2.31384903 -0.52406799 3.36103342 0.02053672
2.37210110 -0.60600683 3.36103342 0.01397845
2.43846947 -0.68152187 3.36103342 0.00665423
2.51225061 -0.74981259 3.36103342 -0.00130959
2.59266244 -0.81015512 3.36103342 -0.00978322
2.67885252 -0.86190979 3.36103342 -0.01863693
2.76990726 -0.90452801 3.36103342 -0.02774410
2.86486146 -0.93755803 3.36103342 -0.03698368
2.96270856 -0.96064967 3.36103342 -0.04624202
3.06241138 -0.97355820 3.36103342 -0.05541418
3.16291305 -0.97614678 3.36103342 -0.06440461
3.26314817 -0.96838793 3.36103342 -0.07312752
3.36205426 -0.95036395 3.36103342 -0.08150679
3.45858292 -0.92226587 3.36103342 -0.08947568
3.55171082 -0.88439151 3.36103342 -0.09697624
3.64045095 -0.83714246 3.36103342 -0.10395872
3.72386247 -0.78101943 3.36103342 -0.11038080
3.80106130 -0.71661742 3.36103342 -0.11620684
3.87122911 -0.64461908 3.36103342 -0.12140718
3.93362204 -0.56578758 3.36103342 -0.12595738
3.98757878 -0.48095865 3.36103342 -0.12983763
4.03252734 -0.39103142 3.36103342 -0.13303213
4.06799130 -0.29695916 3.36103342 -0.13552867
4.09359463 -0.19973905 3.36103342 -0.13731813
4.10906602 -0.10040167 3.36103342 -0.13839425
4.21933222 0.00000000 3.32870330 -0.14595263
4.21457984 0.10127901 3.32870330 -0.14563083
4.20036440 0.20166797 3.32870330 -0.14466616
4.17681084 0.30028467 3.32870330 -0.14306080
4.14412617 0.39626246 3.32870330 -0.14081852
4.10259762 0.48875788 3.32870330 -0.13794481
4.05259013 0.57695808 3.32870330 -0.13444705
3.99454323 0.66008793 3.32870330 -0.13033483
3.92896692 0.73741693 3.32870330 -0.12562025
3.85643755 0.80826548 3.32870330 -0.12031833
3.77759256 0.87201093 3.32870330 -0.11444744
3.69312475 0.92809317 3.32870330 -0.10802982
3.60377649 0.97601924 3.32870330 -0.10109209
3.51033294 1.01536805 3.32870330 -0.09366590
3.41361531 1.04579377 3.32870330 -0.08578851
3.31447357 1.06702901 3.32870330 -0.07750341
3.21377897 1.07888718 3.32870330 -0.06886090
3.11241639 1.08126403 3.32870330 -0.05991869
3.01127659 1.07413871 3.32870330 -0.05074229
2.91124848 1.05757378 3.32870330 -0.04140533
2.81321103 1.03171491 3.32870330 -0.03198970
2.71802585 0.99678923 3.32870330 -0.02258535
2.62652935 0.95310376 3.32870330 -0.01328983
2.53952571 0.90104243 3.32870330 -0.00420743
2.45777946 0.84106265 3.32870330 0.00455206
2.38200898 0.77369159 3.32870330 0.01287516
2.31288021 0.69952130 3.32870330 0.02064684
2.25100058 0.61920355 3.32870330 0.02775315
2.19691393 0.53344428 3.32870330 0.03408422
2.15109556 0.44299707 3.32870330 0.03953745
2.11394808 0.34865678 3.32870330 0.04402084
2.08579803 0.25125248 3.32870330 0.04745618
2.06689281 0.15164016 3.32870330 0.04978192
2.05739842 0.05069523 3.32870330 0.05095563
2.05739842 -0.05069523 3.32870330 0.05095563
2.06689281 -0.15164016 3.32870330 0.04978192
2.08579803 -0.25125248 3.32870330 0.04745618
2.11394808 -0.34865678 3.32870330 0.04402084
2.15109556 -0.44299707 3.32870330 0.03953745
2.19691393 -0.53344428 3.32870330 0.03408422
2.25100058 -0.61920355 3.32870330 0.02775315
2.31288021 -0.69952130 3.32870330 0.02064684
2.38200898 -0.77369159 3.32870330 0.01287516
2.45777946 -0.84106265 3.32870330 0.00455206
2.53952571 -0.90104243 3.32870330 -0.00420743
2.62652935 -0.95310376 3.32870330 -0.01328983
2.71802585 -0.99678923 3.32870330 -0.02258535
2.81321103 -1.03171491 3.32870330 -0.03198970
2.91124848 -1.05757378 3.32870330 -0.04140533
3.01127659 -1.07413871 3.32870330 -0.05074229
3.11241639 -1.08126403 3.32870330 -0.05991869
3.21377897 -1.07888718 3.32870330 -0.06886090
3.31447357 -1.06702901 3.32870330 -0.07750341
3.41361531 -1.04579377 3.32870330 -0.08578851
3.51033294 -1.01536805 3.32870330 -0.09366590
3.60377649 -0.97601924 3.32870330 -0.10109209
3.69312475 -0.92809317 3.32870330 -0.10802982
3.77759256 -0.87201093 3.32870330 -0.11444744
3.85643755 -0.80826548 3.32870330 -0.12031833
3.92896692 -0.73741693 3.32870330 -0.12562025
3.99454323 -0.66008793 3.32870330 -0.13033483
4.05259013 -0.57695808 3.32870330 -0.13444705
4.10259762 -0.48875788 3.32870330 -0.13794481
4.14412617 -0.39626246 3.32870330 -0.14081852
4.17681084 -0.30028467 3.32870330 -0.14306080
4.20036440 -0.20166797 3.32870330 -0.14466616
4.21457984 -0.10127901 3.32870330 -0.14563083
4.32335561 0.00000000 3.29308810 -0.15290943
4.31908457 0.10054460 3.29308810 -0.15262703
4.30630209 0.20036479 3.29308810 -0.15178021
4.28510029 0.29874133 3.29308810 -0.15037019
4.25563201 0.39496544 3.29308810 -0.14839906
4.21810950 0.48834381 3.29308810 -0.14586988
4.17280311 0.57820366 3.29308810 -0.14278677
4.12003930 0.66389753 3.29308810 -0.13915514
4.06019822 0.74480800 3.29308810 -0.13498185
3.99371104 0.82035209 3.29308810 -0.13027546
3.92105679 0.88998560 3.29308810 -0.12504652
3.84275891 0.95320669 3.29308810 -0.11930791
3.75938162 1.00955991 3.29308810 -0.11307518
3.67152560 1.05863923 3.29308810 -0.10636696
3.57982388 1.10009104 3.29308810 -0.09920540
3.48493715 1.13361662 3.29308810 -0.09161662
3.38754906 1.15897452 3.29308810 -0.08363120
3.28836134 1.17598195 3.29308810 -0.07528467
3.18808859 1.18451641 3.29308810 -0.06661795
3.08745331 1.18451641 3.29308810 -0.05767783
2.98718056 1.17598195 3.29308810 -0.04851732
2.88799284 1.15897452 3.29308810 -0.03919599
2.79060475 1.13361662 3.29308810 -0.02978009
2.69571802 1.10009104 3.29308810 -0.02034255
2.60401630 1.05863923 3.29308810 -0.01096286
2.51616027 1.00955991 3.29308810 -0.00172649
2.43278299 0.95320669 3.29308810 0.00727574
2.35448511 0.88998560 3.29308810 0.01594874
2.28183086 0.82035209 3.29308810 0.02419459
2.21534368 0.74480800 3.29308810 0.03191417
2.15550260 0.66389753 3.29308810 0.03900928
2.10273879 0.57820366 3.29308810 0.04538484
2.05743240 0.48834381 3.29308810 0.05095142
2.01990988 0.39496544 3.29308810 0.05562776
1.99044161 0.29874133 3.29308810 0.05934322
1.96923981 0.20036479 3.29308810 0.06204016
1.95645733 0.10054460 3.29308810 0.06367586
1.95218629 0.00000000 3.29308810 0.06422405
1.95645733 -0.10054460 3.29308810 0.06367586
1.96923981 -0.20036479 3.29308810 0.06204016
1.99044161 -0.29874133 3.29308810 0.05934322
2.01990988 -0.39496544 3.29308810 0.05562776
2.05743240 -0.48834381 3.29308810 0.05095142
2.10273879 -0.57820366 3.29308810 0.04538484
2.15550260 -0.66389753 3.29308810 0.03900928
2.21534368 -0.74480800 3.29308810 0.03191417
2.28183086 -0.82035209 3.29308810 0.02419459
2.35448511 -0.88998560 3.29308810 0.01594874
2.43278299 -0.95320669 3.29308810 0.00727574
2.51616027 -1.00955991 3.29308810 -0.00172649
2.60401630 -1.05863923 3.29308810 -0.01096286
2.69571802 -1.10009104 3.29308810 -0.02034255
2.79060475 -1.13361662 3.29308810 -0.02978009
2.88799284 -1.15897452 3.29308810 -0.03919599
2.98718056 -1.17598195 3.29308810 -0.04851732
3.08745331 -1.18451641 3.29308810 -0.05767783
3.18808859 -1.18451641 3.29308810 -0.06661795
3.28836134 -1.17598195 3.29308810 -0.07528467
3.38754906 -1.15897452 3.29308810 -0.08363120
3.48493715 -1.13361662 3.29308810 -0.09161662
3.57982388 -1.10009104 3.29308810 -0.09920540
3.67152560 -1.05863923 3.29308810 -0.10636696
3.75938162 -1.00955991 3.29308810 -0.11307518
3.84275891 -0.95320669 3.29308810 -0.11930791
3.92105679 -0.88998560 3.29308810 -0.12504652
3.99371104 -0.82035209 3.29308810 -0.13027546
4.06019822 -0.74480800 3.29308810 -0.13498185
4.12003930 -0.66389753 3.29308810 -0.13915514
4.17280311 -0.57820366 3.29308810 -0.14278677
4.21810950 -0.48834381 3.29308810 -0.14586988
4.25563201 -0.39496544 3.29308810 -0.14839906
4.28510029 -0.29874133 3.29308810 -0.15037019
4.30630209 -0.20036479 3.29308810 -0.15178021
4.31908457 -0.10054460 3.29308810 -0.15262703
4.42620899 0.00000000 3.25422307 -0.15962874
4.42223720 0.10108969 3.25422307 -0.15937213
4.41034622 0.20155612 3.25422307 -0.15860252
4.39060935 0.30077989 3.25422307 -0.15732058
4.36314835 0.39814926 3.25422307 -0.15552749
4.32813249 0.49306390 3.25422307 -0.15322496
4.28577769 0.58493866 3.25422307 -0.15041534
4.23634499 0.67320702 3.25422307 -0.14710175
4.18013925 0.75732489 3.25422307 -0.14328819
4.11750692 0.83677357 3.25422307 -0.13897972
4.04883425 0.91106330 3.25422307 -0.13418267
3.97454452 0.97973597 3.25422307 -0.12890486
3.89509584 1.04236830 3.25422307 -0.12315585
3.81097797 1.09857404 3.25422307 -0.11694722
3.72270961 1.14800674 3.25422307 -0.11029294
3.63083485 1.19036154 3.25422307 -0.10320966
3.53592023 1.22537740 3.25422307 -0.09571710
3.43855087 1.25283840 3.25422307 -0.08783848
3.33932706 1.27257527 3.25422307 -0.07960087
3.23886064 1.28446625 3.25422307 -0.07103565
3.13777095 1.28843804 3.25422307 -0.06217890
3.03668126 1.28446625 3.25422307 -0.05307175
2.93621484 1.27257527 3.25422307 -0.04376080
2.83699108 1.25283840 3.25422307 -0.03429830
2.73962167 1.22537740 3.25422307 -0.02474237
2.64470705 1.19036154 3.25422307 -0.01515709
2.55283229 1.14800674 3.25422307 -0.00561232
2.46456393 1.09857404 3.25422307 0.00381651
2.38044606 1.04236830 3.25422307 0.01304897
2.30099738 0.97973597 3.25422307 0.02200035
2.22670765 0.91106330 3.25422307 0.03058271
2.15803498 0.83677357 3.25422307 0.03870613
2.09540265 0.75732489 3.25422307 0.04628036
2.03919690 0.67320702 3.25422307 0.05321649
1.98976426 0.58493866 3.25422307 0.05942907
1.94740941 0.49306390 3.25422307 0.06483813
1.91239355 0.39814926 3.25422307 0.06937139
1.88493255 0.30077989 3.25422307 0.07296628
1.86519573 0.20155612 3.25422307 0.07557193
1.85330470 0.10108969 3.25422307 0.07715074
1.84933291 0.00000000 3.25422307 0.07767960
1.85330470 -0.10108969 3.25422307 0.07715074
1.86519573 -0.20155612 3.25422307 0.07557193
1.88493255 -0.30077989 3.25422307 0.07296628
1.91239355 -0.39814926 3.25422307 0.06937139
1.94740941 -0.49306390 3.25422307 0.06483813
1.98976426 -0.58493866 3.25422307 0.05942907
2.03919690 -0.67320702 3.25422307 0.05321649
2.09540265 -0.75732489 3.25422307 0.04628036
2.15803498 -0.83677357 3.25422307 0.03870613
2.22670765 -0.91106330 3.25422307 0.03058271
2.30099738 -0.97973597 3.25422307 0.02200035
2.38044606 -1.04236830 3.25422307 0.01304897
2.46456393 -1.09857404 3.25422307 0.00381651
2.55283229 -1.14800674 3.25422307 -0.00561232
2.64470705 -1.19036154 3.25422307 -0.01515709
2.73962167 -1.22537740 3.25422307 -0.02474237
2.83699108 -1.25283840 3.25422307 -0.03429830
2.93621484 -1.27257527 3.25422307 -0.04376080
3.03668126 -1.28446625 3.25422307 -0.05307175
3.13777095 -1.28843804 3.25422307 -0.06217890
3.23886064 -1.28446625 3.25422307 -0.07103565
3.33932706 -1.27257527 3.25422307 -0.07960087
3.43855087 -1.25283840 3.25422307 -0.08783848
3.53592023 -1.22537740 3.25422307 -0.09571710
3.63083485 -1.19036154 3.25422307 -0.10320966
3.72270961 -1.14800674 3.25422307 -0.11029294
3.81097797 -1.09857404 3.25422307 -0.11694722
3.89509584 -1.04236830 3.25422307 -0.12315585
3.97454452 -0.97973597 3.25422307 -0.12890486
4.04883425 -0.91106330 3.25422307 -0.13418267
4.11750692 -0.83677357 3.25422307 -0.13897972
4.18013925 -0.75732489 3.25422307 -0.14328819
4.23634499 -0.67320702 3.25422307 -0.14710175
4.28577769 -0.58493866 3.25422307 -0.15041534
4.32813249 -0.49306390 3.25422307 -0.15322496
4.36314835 -0.39814926 3.25422307 -0.15552749
4.39060935 -0.30077989 3.25422307 -0.15732058
4.41034622 -0.20155612 3.25422307 -0.15860252
4.42223720 -0.10108969 3.25422307 -0.15937213
4.52779087 0.00000000 3.21214651 -0.16611544
4.52416743 0.10030072 3.21214651 -0.16588655
4.51331592 0.20007851 3.21214651 -0.16519998
4.49529300 0.29881319 3.21214651 -0.16405605
4.47019254 0.39599000 3.21214651 -0.16245530
4.43814548 0.49110230 3.21214651 -0.16039856
4.39931886 0.58365424 3.21214651 -0.15788697
4.35391511 0.67316320 3.21214651 -0.15492210
4.30217096 0.75916267 3.21214651 -0.15150600
4.24435615 0.84120421 3.21214651 -0.14764130
4.18077215 0.91886009 3.21214651 -0.14333140
4.11175043 0.99172548 3.21214651 -0.13858056
4.03765078 1.05942045 3.21214651 -0.13339409
3.95885960 1.12159208 3.21214651 -0.12777855
3.87578765 1.17791625 3.21214651 -0.12174196
3.78886800 1.22809932 3.21214651 -0.11529401
3.69855384 1.27187967 3.21214651 -0.10844637
3.60531603 1.30902901 3.21214651 -0.10121296
3.50964067 1.33935365 3.21214651 -0.09361022
3.41202651 1.36269560 3.21214651 -0.08565744
3.31298257 1.37893303 3.21214651 -0.07737713
3.21302511 1.38798132 3.21214651 -0.06879531
3.11267531 1.38979338 3.21214651 -0.05994185
3.01245639 1.38435963 3.21214651 -0.05085084
2.91289078 1.37170854 3.21214651 -0.04156080
2.81449757 1.35190594 3.21214651 -0.03211501
2.71778973 1.32505513 3.21214651 -0.02256169
2.62327152 1.29129613 3.21214651 -0.01295408
2.53143571 1.25080488 3.21214651 -0.00335047
2.44276099 1.20379258 3.21214651 0.00618593
2.35770976 1.15050419 3.21214651 0.01558724
2.27672541 1.09121764 3.21214651 0.02478140
2.20023012 1.02624195 3.21214651 0.03369276
2.12862274 0.95591597 3.21214651 0.04224300
2.06227664 0.88060620 3.21214651 0.05035210
2.00153760 0.80070544 3.21214651 0.05793971
1.94672243 0.71663012 3.21214651 0.06492653
1.89811678 0.62881865 3.21214651 0.07123594
1.85597413 0.53772882 3.21214651 0.07679572
1.82051419 0.44383549 3.21214651 0.08153976
1.79192181 0.34762821 3.21214651 0.08540982
1.77034604 0.24960857 3.21214651 0.08835711
1.75589940 0.15028759 3.21214651 0.09034367
1.74865719 0.05018307 3.21214651 0.09134354
1.74865719 -0.05018307 3.21214651 0.09134354
1.75589940 -0.15028759 3.21214651 0.09034367
1.77034604 -0.24960857 3.21214651 0.08835711
1.79192181 -0.34762821 3.21214651 0.08540982
1.82051419 -0.44383549 3.21214651 0.08153976
1.85597413 -0.53772882 3.21214651 0.07679572
1.89811678 -0.62881865 3.21214651 0.07123594
1.94672243 -0.71663012 3.21214651 0.06492653
2.00153760 -0.80070544 3.21214651 0.05793971
2.06227664 -0.88060620 3.21214651 0.05035210
2.12862274 -0.95591597 3.21214651 0.04224300
2.20023012 -1.02624195 3.21214651 0.03369276
2.27672541 -1.09121764 3.21214651 0.02478140
2.35770976 -1.15050419 3.21214651 0.01558724
2.44276099 -1.20379258 3.21214651 0.00618593
2.53143571 -1.25080488 3.21214651 -0.00335047
2.62327152 -1.29129613 3.21214651 -0.01295408
2.71778973 -1.32505513 3.21214651 -0.02256169
2.81449757 -1.35190594 3.21214651 -0.03211501
2.91289078 -1.37170854 3.21214651 -0.04156080
3.01245639 -1.38435963 3.21214651 -0.05085084
3.11267531 -1.38979338 3.21214651 -0.05994185
3.21302511 -1.38798132 3.21214651 -0.06879531
3.31298257 -1.37893303 3.21214651 -0.07737713
3.41202651 -1.36269560 3.21214651 -0.08565744
3.50964067 -1.33935365 3.21214651 -0.09361022
3.60531603 -1.30902901 3.21214651 -0.10121296
3.69855384 -1.27187967 3.21214651 -0.10844637
3.78886800 -1.22809932 3.21214651 -0.11529401
3.87578765 -1.17791625 3.21214651 -0.12174196
3.95885960 -1.12159208 3.21214651 -0.12777855
4.03765078 -1.05942045 3.21214651 -0.13339409
4.11175043 -0.99172548 3.21214651 -0.13858056
4.18077215 -0.91886009 3.21214651 -0.14333140
4.24435615 -0.84120421 3.21214651 -0.14764130
4.30217096 -0.75916267 3.21214651 -0.15150600
4.35391511 -0.67316320 3.21214651 -0.15492210
4.39931886 -0.58365424 3.21214651 -0.15788697
4.43814548 -0.49110230 3.21214651 -0.16039856
4.47019254 -0.39599000 3.21214651 -0.16245530
4.49529300 -0.29881319 3.21214651 -0.16405605
4.51331592 -0.20007851 3.21214651 -0.16519998
4.52416743 -0.10030072 3.21214651 -0.16588655
4.52779087 0.00000000 3.21214651 -0.16611544
4.62800096 0.00000000 3.16689992 -0.17237428
4.62460115 0.10060505 3.16689992 -0.17216416
4.61441730 0.20075106 3.16689992 -0.17153386
4.59749586 0.29998109 3.16689992 -0.17048346
4.57391399 0.39784238 3.16689992 -0.16901315
4.54377937 0.49388840 3.16689992 -0.16712324
4.50722943 0.58768090 3.16689992 -0.16481417
4.46443097 0.67879201 3.16689992 -0.16208661
4.41557931 0.76680589 3.16689992 -0.15894147
4.36089723 0.85132101 3.16689992 -0.15538001
4.30063434 0.93195177 3.16689992 -0.15140394
4.23506560 1.00833026 3.16689992 -0.14701549
4.16449011 1.08010794 3.16689992 -0.14221755
4.08922998 1.14695733 3.16689992 -0.13701383
4.00962853 1.20857343 3.16689992 -0.13140897
3.92604899 1.26467514 3.16689992 -0.12540874
3.83887274 1.31500638 3.16689992 -0.11902023
3.74849751 1.35933755 3.16689992 -0.11225206
3.65533564 1.39746634 3.16689992 -0.10511461
3.55981231 1.42921886 3.16689992 -0.09762027
3.46236325 1.45445013 3.16689992 -0.08978368
3.36343319 1.47304514 3.16689992 -0.08162206
3.26347345 1.48491898 3.16689992 -0.07315544
3.16294014 1.49001744 3.16689992 -0.06440700
3.06229205 1.48831730 3.16689992 -0.05540335
2.96198830 1.47982628 3.16689992 -0.04617482
2.86248667 1.46458318 3.16689992 -0.03675571
2.76424105 1.44265752 3.16689992 -0.02718454
2.66769974 1.41414938 3.16689992 -0.01750427
2.57330329 1.37918878 3.16689992 -0.00776237
2.48148241 1.33793525 3.16689992 0.00198908
2.39265597 1.29057703 3.16689992 0.01169348
2.30722934 1.23733018 3.16689992 0.02128985
2.22559225 1.17843770 3.16689992 0.03071317
2.14811725 1.11416831 3.16689992 0.03989483
2.07515782 1.04481517 3.16689992 0.04876329
2.00704686 0.97069482 3.16689992 0.05724488
1.94409512 0.89214538 3.16689992 0.06526480
1.88658983 0.80952529 3.16689992 0.07274833
1.83479340 0.72321155 3.16689992 0.07962207
1.78894217 0.63359791 3.16689992 0.08581546
1.74924532 0.54109338 3.16689992 0.09126224