ITEM: TIMESTEP
0
ITEM: NUMBER OF ATOMS
14341
ITEM: BOX BOUNDS pp pp pp
-1.0000000000000000e+01 1.0000000000000000e+01
-1.0000000000000000e+01 1.0000000000000000e+01
-1.0000000000000000e+01 1.0000000000000000e+01
ITEM: ATOMS x y z q
3.13777095 0.00000000 3.50000578 -0.12044542
3.24770879 0.00000000 3.49827876 -0.12685045
3.19273985 0.09520896 3.49827876 -0.12372230
3.08280205 0.09520896 3.49827876 -0.11701816
3.02783311 0.00000000 3.49827876 -0.11343881
3.08280205 -0.09520896 3.49827876 -0.11701816
3.19273985 -0.09520896 3.49827876 -0.12372230
3.24770879 0.00000000 3.49827876 -0.12685045
3.35753810 0.00000000 3.49309933 -0.13266117
3.33236510 0.10213090 3.49309933 -0.13138064
3.26261296 0.18086485 3.49309933 -0.12767317
3.16426097 0.21816483 3.49309933 -0.12204325
3.05984043 0.20548589 3.49309933 -0.11554160
2.97327284 0.14573260 3.49309933 -0.10973386
2.92438980 0.05259373 3.49309933 -0.10628408
2.92438980 -0.05259373 3.49309933 -0.10628408
2.97327284 -0.14573260 3.49309933 -0.10973386
3.05984043 -0.20548589 3.49309933 -0.11554160
3.16426097 -0.21816483 3.49309933 -0.12204325
3.26261296 -0.18086485 3.49309933 -0.12767317
3.33236510 -0.10213090 3.49309933 -0.13138064
3.35753810 0.00000000 3.49309933 -0.13266117
3.46715061 0.00000000 3.48447264 -0.13788580
3.45102960 0.10178390 3.48447264 -0.13715300
3.40424470 0.19360450 3.48447264 -0.13495699
3.33137544 0.26647372 3.48447264 -0.13132968
3.23955486 0.31325865 3.48447264 -0.12639576
3.13777095 0.32937964 3.48447264 -0.12044542
3.03598703 0.31325865 3.48447264 -0.11397944
2.94416646 0.26647372 3.48447264 -0.10769469
2.87129720 0.19360450 3.48447264 -0.10239595
2.82451229 0.10178390 3.48447264 -0.09884633
2.80839129 0.00000000 3.48447264 -0.09759617
2.82451229 -0.10178390 3.48447264 -0.09884633
2.87129720 -0.19360450 3.48447264 -0.10239595
2.94416646 -0.26647372 3.48447264 -0.10769469
3.03598703 -0.31325865 3.48447264 -0.11397944
3.13777095 -0.32937964 3.48447264 -0.12044542
3.23955486 -0.31325865 3.48447264 -0.12639576
3.33137544 -0.26647372 3.48447264 -0.13132968
3.40424470 -0.19360450 3.48447264 -0.13495699
3.45102960 -0.10178390 3.48447264 -0.13715300
3.57643799 0.00000000 3.47240719 -0.14253354
3.56461369 0.10116358 3.47240719 -0.14205744
3.52977813 0.19687341 3.47240719 -0.14061718
3.47380940 0.28196974 3.47240719 -0.13818492
3.39972473 0.35186501 3.47240719 -0.13473935
3.31151807 0.40279114 3.47240719 -0.13029717
3.21394471 0.43200270 3.47240719 -0.12494655
3.11226472 0.43792489 3.47240719 -0.11887393
3.01195981 0.42023843 3.47240719 -0.11237664
2.91843740 0.37989680 3.47240719 -0.10585552
2.83673935 0.31907484 3.47240719 -0.09978526
2.77127000 0.24105148 3.47240719 -0.09466428
2.72555879 0.15003297 3.47240719 -0.09095118
2.70207000 0.05092614 3.47240719 -0.08899866
2.70207000 -0.05092614 3.47240719 -0.08899866
2.72555879 -0.15003297 3.47240719 -0.09095118
2.77127000 -0.24105148 3.47240719 -0.09466428
2.83673935 -0.31907484 3.47240719 -0.09978526
2.91843740 -0.37989680 3.47240719 -0.10585552
3.01195981 -0.42023843 3.47240719 -0.11237664
3.11226472 -0.43792489 3.47240719 -0.11887393
3.21394471 -0.43200270 3.47240719 -0.12494655
3.31151807 -0.40279114 3.47240719 -0.13029717
3.39972473 -0.35186501 3.47240719 -0.13473935
3.47380940 -0.28196974 3.47240719 -0.13818492
3.52977813 -0.19687341 3.47240719 -0.14061718
3.56461369 -0.10116358 3.47240719 -0.14205744
3.68529251 0.00000000 3.45691490 -0.14661458
3.67596989 0.10060682 3.45691490 -0.14628628
3.64831960 0.19778759 3.45691490 -0.14528928
3.60328314 0.28823294 3.45691490 -0.14359049
3.54239424 0.36886287 3.45691490 -0.14114529
3.46772641 0.43693162 3.45691490 -0.13791175
3.38182230 0.49012118 3.45691490 -0.13386779
3.28760731 0.52662025 3.45691490 -0.12902869
3.18828984 0.54518593 3.45691490 -0.12346258
3.08725206 0.54518593 3.45691490 -0.11730125
2.98793459 0.52662025 3.45691490 -0.11074447
2.89371960 0.49012118 3.45691490 -0.10405607
2.80781549 0.43693162 3.45691490 -0.09755126
2.73314766 0.36886287 3.45691490 -0.09157553
2.67225876 0.28823294 3.45691490 -0.08647661
2.62722236 0.19778759 3.45691490 -0.08257239
2.59957201 0.10060682 3.45691490 -0.08011869
2.59024945 0.00000000 3.45691490 -0.07928160
2.59957201 -0.10060682 3.45691490 -0.08011869
2.62722236 -0.19778759 3.45691490 -0.08257239
2.67225876 -0.28823294 3.45691490 -0.08647661
2.73314766 -0.36886287 3.45691490 -0.09157553
2.80781549 -0.43693162 3.45691490 -0.09755126
2.89371960 -0.49012118 3.45691490 -0.10405607
2.98793459 -0.52662025 3.45691490 -0.11074447
3.08725206 -0.54518593 3.45691490 -0.11730125
3.18828984 -0.54518593 3.45691490 -0.12346258
3.28760731 -0.52662025 3.45691490 -0.12902869
3.38182230 -0.49012118 3.45691490 -0.13386779
3.46772641 -0.43693162 3.45691490 -0.13791175
3.54239424 -0.36886287 3.45691490 -0.14114529
3.60328314 -0.28823294 3.45691490 -0.14359049
3.64831960 -0.19778759 3.45691490 -0.14528928
3.67596989 -0.10060682 3.45691490 -0.14628628
3.79360662 0.00000000 3.43801106 -0.15014014
3.78592054 0.10011285 3.43801106 -0.14990741
3.76304231 0.19787914 3.43801106 -0.14919894
3.72550832 0.29100730 3.43801106 -0.14798550
3.67419820 0.37731451 3.43801106 -0.14622345
3.61031474 0.45477778 3.43801106 -0.14386186
3.53535523 0.52158145 3.43801106 -0.14085154
3.45107665 0.57615966 3.43801106 -0.13715515
3.35945447 0.61723322 3.43801106 -0.13275741
3.26263624 0.64383934 3.43801106 -0.12767445
3.16289125 0.65535444 3.43801106 -0.12196148
3.06255749 0.65150854 3.43801106 -0.11571771
2.96398663 0.63239186 3.43801106 -0.10908803
2.86948916 0.59845246 3.43801106 -0.10226093
2.78127996 0.55048579 3.43801106 -0.09546221
2.70142662 0.48961624 3.43801106 -0.08894474
2.63180080 0.41727050 3.43801106 -0.08297451
2.57403451 0.33514428 3.43801106 -0.07781379
2.52948172 0.24516258 3.43801106 -0.07370281
2.49918676 0.14943446 3.43801106 -0.07084148
2.48385963 0.05020373 3.43801106 -0.06937332
2.48385963 -0.05020373 3.43801106 -0.06937332
2.49918676 -0.14943446 3.43801106 -0.07084148
2.52948172 -0.24516258 3.43801106 -0.07370281
2.57403451 -0.33514428 3.43801106 -0.07781379
2.63180080 -0.41727050 3.43801106 -0.08297451
2.70142662 -0.48961624 3.43801106 -0.08894474
2.78127996 -0.55048579 3.43801106 -0.09546221
2.86948916 -0.59845246 3.43801106 -0.10226093
2.96398663 -0.63239186 3.43801106 -0.10908803
3.06255749 -0.65150854 3.43801106 -0.11571771
3.16289125 -0.65535444 3.43801106 -0.12196148
3.26263624 -0.64383934 3.43801106 -0.12767445
3.35945447 -0.61723322 3.43801106 -0.13275741
3.45107665 -0.57615966 3.43801106 -0.13715515
3.53535523 -0.52158145 3.43801106 -0.14085154
3.61031474 -0.45477778 3.43801106 -0.14386186
3.67419820 -0.37731451 3.43801106 -0.14622345
3.72550832 -0.29100730 3.43801106 -0.14798550
3.76304231 -0.19787914 3.43801106 -0.14919894
3.78592054 -0.10011285 3.43801106 -0.14990741
3.90127356 0.00000000 3.41571429 -0.15312252
3.89446120 0.10176494 3.41571429 -0.15294912
3.87414567 0.20171388 3.41571429 -0.15241978
3.84068956 0.29806323 3.41571429 -0.15150800
3.79468980 0.38909363 3.41571429 -0.15017273
3.73696733 0.47318065 3.41571429 -0.14836271
3.66855220 0.54882375 3.41571429 -0.14602224
3.59066523 0.61467311 3.41571429 -0.14309783
3.50469635 0.66955353 3.41571429 -0.13954527
3.41217970 0.71248582 3.41571429 -0.13533673
3.31476626 0.74270378 3.41571429 -0.13046735
3.21419427 0.75966814 3.41571429 -0.12496082
3.11225853 0.76307625 3.41571429 -0.11887354
3.01077805 0.75286721 3.41571429 -0.11229705
2.91156376 0.72922326 3.41571429 -0.10535833
2.81638615 0.69256627 3.41571429 -0.09821790
2.72694370 0.64355046 3.41571429 -0.09106535
2.64483241 0.58305045 3.41571429 -0.08411257
2.57151764 0.51214589 3.41571429 -0.07758460
2.50830766 0.43210208 3.41571429 -0.07170860
2.45633052 0.34434740 3.41571429 -0.06670143
2.41651365 0.25044783 3.41571429 -0.06275682
2.38956764 0.15207902 3.41571429 -0.06003299
2.37597335 0.05099635 3.41571429 -0.05864201
2.37597335 -0.05099635 3.41571429 -0.05864201
2.38956764 -0.15207902 3.41571429 -0.06003299
2.41651365 -0.25044783 3.41571429 -0.06275682
2.45633052 -0.34434740 3.41571429 -0.06670143
2.50830766 -0.43210208 3.41571429 -0.07170860
2.57151764 -0.51214589 3.41571429 -0.07758460
2.64483241 -0.58305045 3.41571429 -0.08411257
2.72694370 -0.64355046 3.41571429 -0.09106535
2.81638615 -0.69256627 3.41571429 -0.09821790
2.91156376 -0.72922326 3.41571429 -0.10535833
3.01077805 -0.75286721 3.41571429 -0.11229705
3.11225853 -0.76307625 3.41571429 -0.11887354
3.21419427 -0.75966814 3.41571429 -0.12496082
3.31476626 -0.74270378 3.41571429 -0.13046735
3.41217970 -0.71248582 3.41571429 -0.13533673
3.50469635 -0.66955353 3.41571429 -0.13954527
3.59066523 -0.61467311 3.41571429 -0.14309783
3.66855220 -0.54882375 3.41571429 -0.14602224
3.73696733 -0.47318065 3.41571429 -0.14836271
3.79468980 -0.38909363 3.41571429 -0.15017273
3.84068956 -0.29806323 3.41571429 -0.15150800
3.87414567 -0.20171388 3.41571429 -0.15241978
3.89446120 -0.10176494 3.41571429 -0.15294912
4.00818700 0.00000000 3.39004667 -0.15557504
4.00230154 0.10104914 3.39004667 -0.15545313
3.98472482 0.20073175 3.39004667 -0.15507999
3.95569449 0.29769982 3.39004667 -0.15443392
3.91560314 0.39064201 3.39004667 -0.15348054
3.86499297 0.47830143 3.39004667 -0.15217530
3.80454831 0.55949265 3.39004667 -0.15046688
3.73508669 0.63311768 3.39004667 -0.14830120
3.65754738 0.69818089 3.39004667 -0.14562589
3.57297897 0.75380242 3.39004667 -0.14239493
3.48252516 0.79923005 3.39004667 -0.13857330
3.38740909 0.83384944 3.39004667 -0.13414141
3.28891713 0.85719244 3.39004667 -0.12909889
3.18838112 0.86894345 3.39004667 -0.12346791
3.08716078 0.86894345 3.39004667 -0.11729545
2.98662477 0.85719244 3.39004667 -0.11065464
2.88813281 0.83384944 3.39004667 -0.10364491
2.79301679 0.79923005 3.39004667 -0.09639089
2.70256293 0.75380242 3.39004667 -0.08903994
2.61799451 0.69818089 3.39004667 -0.08175833
2.54045521 0.63311768 3.39004667 -0.07472602
2.47099359 0.55949265 3.39004667 -0.06813019
2.41054893 0.47830143 3.39004667 -0.06215768
2.35993876 0.39064201 3.39004667 -0.05698675
2.31984741 0.29769982 3.39004667 -0.05277849
2.29081708 0.20073175 3.39004667 -0.04966851
2.27324036 0.10104914 3.39004667 -0.04775965
2.26735490 0.00000000 3.39004667 -0.04711608
2.27324036 -0.10104914 3.39004667 -0.04775965
2.29081708 -0.20073175 3.39004667 -0.04966851
2.31984741 -0.29769982 3.39004667 -0.05277849
2.35993876 -0.39064201 3.39004667 -0.05698675
2.41054893 -0.47830143 3.39004667 -0.06215768
2.47099359 -0.55949265 3.39004667 -0.06813019
2.54045521 -0.63311768 3.39004667 -0.07472602
2.61799451 -0.69818089 3.39004667 -0.08175833
2.70256293 -0.75380242 3.39004667 -0.08903994
2.79301679 -0.79923005 3.39004667 -0.09639089
2.88813281 -0.83384944 3.39004667 -0.10364491
2.98662477 -0.85719244 3.39004667 -0.11065464
3.08716078 -0.86894345 3.39004667 -0.11729545
3.18838112 -0.86894345 3.39004667 -0.12346791
3.28891713 -0.85719244 3.39004667 -0.12909889
3.38740909 -0.83384944 3.39004667 -0.13414141
3.48252516 -0.79923005 3.39004667 -0.13857330
3.57297897 -0.75380242 3.39004667 -0.14239493
3.65754738 -0.69818089 3.39004667 -0.14562589
3.73508669 -0.63311768 3.39004667 -0.14830120
3.80454831 -0.55949265 3.39004667 -0.15046688
3.86499297 -0.47830143 3.39004667 -0.15217530
3.91560314 -0.39064201 3.39004667 -0.15348054
3.95569449 -0.29769982 3.39004667 -0.15443392
3.98472482 -0.20073175 3.39004667 -0.15507999
4.00230154 -0.10104914 3.39004667 -0.15545313
4.00818700 0.00000000 3.39004667 -0.15557504
4.11424142 0.00000000 3.36103342 -0.15751215
4.10906602 0.10040167 3.36103342 -0.15742901
4.09359463 0.19973905 3.36103342 -0.15717350
4.06799130 0.29695916 3.36103342 -0.15672777
4.03252734 0.39103142 3.36103342 -0.15606310
3.98757878 0.48095865 3.36103342 -0.15514150
3.93362204 0.56578758 3.36103342 -0.15391782
3.87122911 0.64461908 3.36103342 -0.15234228
3.80106130 0.71661742 3.36103342 -0.15036333
3.72386247 0.78101943 3.36103342 -0.14793083
3.64045095 0.83714246 3.36103342 -0.14499917
3.55171082 0.88439151 3.36103342 -0.14153053
3.45858292 0.92226587 3.36103342 -0.13749786
3.36205426 0.95036395 3.36103342 -0.13288769
3.26314817 0.96838793 3.36103342 -0.12770252
3.16291305 0.97614678 3.36103342 -0.12196278
3.06241138 0.97355820 3.36103342 -0.11570824
2.96270856 0.96064967 3.36103342 -0.10899880
2.86486146 0.93755803 3.36103342 -0.10191456
2.76990726 0.90452801 3.36103342 -0.09455523
2.67885252 0.86190979 3.36103342 -0.08703870
2.59266244 0.81015512 3.36103342 -0.07949874
2.51225061 0.74981259 3.36103342 -0.07208194
2.43846947 0.68152187 3.36103342 -0.06494374
2.37210110 0.60600683 3.36103342 -0.05824372
2.31384903 0.52406799 3.36103342 -0.05214023
2.26433071 0.43657389 3.36103342 -0.04678453
2.22407108 0.34445200 3.36103342 -0.04231476
2.19349693 0.24867883 3.36103342 -0.03885004
2.17293226 0.15026960 3.36103342 -0.03648508
2.16259516 0.05026749 3.36103342 -0.03528572
2.16259516 -0.05026749 3.36103342 -0.03528572
2.17293226 -0.15026960 3.36103342 -0.03648508
2.19349693 -0.24867883 3.36103342 -0.03885004
2.22407108 -0.34445200 3.36103342 -0.04231476
2.26433071 -0.43657389 3.36103342 -0.04678453
2.31384903 -0.52406799 3.36103342 -0.05214023
2.37210110 -0.60600683 3.36103342 -0.05824372
2.43846947 -0.68152187 3.36103342 -0.06494374
2.51225061 -0.74981259 3.36103342 -0.07208194
2.59266244 -0.81015512 3.36103342 -0.07949874
2.67885252 -0.86190979 3.36103342 -0.08703870
2.76990726 -0.90452801 3.36103342 -0.09455523
2.86486146 -0.93755803 3.36103342 -0.10191456
2.96270856 -0.96064967 3.36103342 -0.10899880
3.06241138 -0.97355820 3.36103342 -0.11570824
3.16291305 -0.97614678 3.36103342 -0.12196278
3.26314817 -0.96838793 3.36103342 -0.12770252
3.36205426 -0.95036395 3.36103342 -0.13288769
3.45858292 -0.92226587 3.36103342 -0.13749786
3.55171082 -0.88439151 3.36103342 -0.14153053
3.64045095 -0.83714246 3.36103342 -0.14499917
3.72386247 -0.78101943 3.36103342 -0.14793083
3.80106130 -0.71661742 3.36103342 -0.15036333
3.87122911 -0.64461908 3.36103342 -0.15234228
3.93362204 -0.56578758 3.36103342 -0.15391782
3.98757878 -0.48095865 3.36103342 -0.15514150
4.03252734 -0.39103142 3.36103342 -0.15606310
4.06799130 -0.29695916 3.36103342 -0.15672777
4.09359463 -0.19973905 3.36103342 -0.15717350
4.10906602 -0.10040167 3.36103342 -0.15742901
4.21933222 0.00000000 3.32870330 -0.15894933
4.21457984 0.10127901 3.32870330 -0.15889464
4.20036440 0.20166797 3.32870330 -0.15872525
4.17681084 0.30028467 3.32870330 -0.15842538
4.14412617 0.39626246 3.32870330 -0.15796951
4.10259762 0.48875788 3.32870330 -0.15732345
4.05259013 0.57695808 3.32870330 -0.15644587
3.99454323 0.66008793 3.32870330 -0.15529010
3.92896692 0.73741693 3.32870330 -0.15380623
3.85643755 0.80826548 3.32870330 -0.15194339
3.77759256 0.87201093 3.32870330 -0.14965224
3.69312475 0.92809317 3.32870330 -0.14688733
3.60377649 0.97601924 3.32870330 -0.14360960
3.51033294 1.01536805 3.32870330 -0.13978871
3.41361531 1.04579377 3.32870330 -0.13540511
3.31447357 1.06702901 3.32870330 -0.13045204
3.21377897 1.07888718 3.32870330 -0.12493706
3.11241639 1.08126403 3.32870330 -0.11888337
3.01127659 1.07413871 3.32870330 -0.11233063
2.91124848 1.05757378 3.32870330 -0.10533547
2.81321103 1.03171491 3.32870330 -0.09797139
2.71802585 0.99678923 3.32870330 -0.09032830
2.62652935 0.95310376 3.32870330 -0.08251142
2.53952571 0.90104243 3.32870330 -0.07463962
2.45777946 0.84106265 3.32870330 -0.06684319
2.38200898 0.77369159 3.32870330 -0.05926097
2.31288021 0.69952130 3.32870330 -0.05203693
2.25100058 0.61920355 3.32870330 -0.04531613
2.19691393 0.53344428 3.32870330 -0.03924029
2.15109556 0.44299707 3.32870330 -0.03394311
2.11394808 0.34865678 3.32870330 -0.02954538
2.08579803 0.25125248 3.32870330 -0.02615041
2.06689281 0.15164016 3.32870330 -0.02383983
2.05739842 0.05069523 3.32870330 -0.02267009
2.05739842 -0.05069523 3.32870330 -0.02267009
2.06689281 -0.15164016 3.32870330 -0.02383983
2.08579803 -0.25125248 3.32870330 -0.02615041
2.11394808 -0.34865678 3.32870330 -0.02954538
2.15109556 -0.44299707 3.32870330 -0.03394311
2.19691393 -0.53344428 3.32870330 -0.03924029
2.25100058 -0.61920355 3.32870330 -0.04531613
2.31288021 -0.69952130 3.32870330 -0.05203693
2.38200898 -0.77369159 3.32870330 -0.05926097
2.45777946 -0.84106265 3.32870330 -0.06684319
2.53952571 -0.90104243 3.32870330 -0.07463962
2.62652935 -0.95310376 3.32870330 -0.08251142
2.71802585 -0.99678923 3.32870330 -0.09032830
2.81321103 -1.03171491 3.32870330 -0.09797139
2.91124848 -1.05757378 3.32870330 -0.10533547
3.01127659 -1.07413871 3.32870330 -0.11233063
3.11241639 -1.08126403 3.32870330 -0.11888337
3.21377897 -1.07888718 3.32870330 -0.12493706
3.31447357 -1.06702901 3.32870330 -0.13045204
3.41361531 -1.04579377 3.32870330 -0.13540511
3.51033294 -1.01536805 3.32870330 -0.13978871
3.60377649 -0.97601924 3.32870330 -0.14360960
3.69312475 -0.92809317 3.32870330 -0.14688733
3.77759256 -0.87201093 3.32870330 -0.14965224
3.85643755 -0.80826548 3.32870330 -0.15194339
3.92896692 -0.73741693 3.32870330 -0.15380623
3.99454323 -0.66008793 3.32870330 -0.15529010
4.05259013 -0.57695808 3.32870330 -0.15644587
4.10259762 -0.48875788 3.32870330 -0.15732345
4.14412617 -0.39626246 3.32870330 -0.15796951
4.17681084 -0.30028467 3.32870330 -0.15842538
4.20036440 -0.20166797 3.32870330 -0.15872525
4.21457984 -0.10127901 3.32870330 -0.15889464
4.32335561 0.00000000 3.29308810 -0.15990315
4.31908457 0.10054460 3.29308810 -0.15987312
4.30630209 0.20036479 3.29308810 -0.15977859
4.28510029 0.29874133 3.29308810 -0.15960636
4.25563201 0.39496544 3.29308810 -0.15933495
4.21810950 0.48834381 3.29308810 -0.15893535
4.17280311 0.57820366 3.29308810 -0.15837197
4.12003930 0.66389753 3.29308810 -0.15760391
4.06019822 0.74480800 3.29308810 -0.15658642
3.99371104 0.82035209 3.29308810 -0.15527246
3.92105679 0.88998560 3.29308810 -0.15361440
3.84275891 0.95320669 3.29308810 -0.15156585
3.75938162 1.00955991 3.29308810 -0.14908338
3.67152560 1.05863923 3.29308810 -0.14612838
3.57982388 1.10009104 3.29308810 -0.14266867
3.48493715 1.13361662 3.29308810 -0.13868016
3.38754906 1.15897452 3.29308810 -0.13414824
3.28836134 1.17598195 3.29308810 -0.12906911
3.18808859 1.18451641 3.29308810 -0.12345080
3.08745331 1.18451641 3.29308810 -0.11731403
2.98718056 1.17598195 3.29308810 -0.11069277
2.88799284 1.15897452 3.29308810 -0.10363458
2.79060475 1.13361662 3.29308810 -0.09620064
2.69571802 1.10009104 3.29308810 -0.08846540
2.60401630 1.05863923 3.29308810 -0.08051600
2.51616027 1.00955991 3.29308810 -0.07245122
2.43278299 0.95320669 3.29308810 -0.06438012
2.35448511 0.88998560 3.29308810 -0.05642016
2.28183086 0.82035209 3.29308810 -0.04869504
2.21534368 0.74480800 3.29308810 -0.04133198
2.15550260 0.66389753 3.29308810 -0.03445869
2.10273879 0.57820366 3.29308810 -0.02820000
2.05743240 0.48834381 3.29308810 -0.02267429
2.01990988 0.39496544 3.29308810 -0.01798978
1.99044161 0.29874133 3.29308810 -0.01424095
1.96923981 0.20036479 3.29308810 -0.01150522
1.95645733 0.10054460 3.29308810 -0.00984014
1.95218629 0.00000000 3.29308810 -0.00928112
1.95645733 -0.10054460 3.29308810 -0.00984014
1.96923981 -0.20036479 3.29308810 -0.01150522
1.99044161 -0.29874133 3.29308810 -0.01424095
2.01990988 -0.39496544 3.29308810 -0.01798978
2.05743240 -0.48834381 3.29308810 -0.02267429
2.10273879 -0.57820366 3.29308810 -0.02820000
2.15550260 -0.66389753 3.29308810 -0.03445869
2.21534368 -0.74480800 3.29308810 -0.04133198
2.28183086 -0.82035209 3.29308810 -0.04869504
2.35448511 -0.88998560 3.29308810 -0.05642016
2.43278299 -0.95320669 3.29308810 -0.06438012
2.51616027 -1.00955991 3.29308810 -0.07245122
2.60401630 -1.05863923 3.29308810 -0.08051600
2.69571802 -1.10009104 3.29308810 -0.08846540
2.79060475 -1.13361662 3.29308810 -0.09620064
2.88799284 -1.15897452 3.29308810 -0.10363458
2.98718056 -1.17598195 3.29308810 -0.11069277
3.08745331 -1.18451641 3.29308810 -0.11731403
3.18808859 -1.18451641 3.29308810 -0.12345080
3.28836134 -1.17598195 3.29308810 -0.12906911
3.38754906 -1.15897452 3.29308810 -0.13414824
3.48493715 -1.13361662 3.29308810 -0.13868016
3.57982388 -1.10009104 3.29308810 -0.14266867
3.67152560 -1.05863923 3.29308810 -0.14612838
3.75938162 -1.00955991 3.29308810 -0.14908338
3.84275891 -0.95320669 3.29308810 -0.15156585
3.92105679 -0.88998560 3.29308810 -0.15361440
3.99371104 -0.82035209 3.29308810 -0.15527246
4.06019822 -0.74480800 3.29308810 -0.15658642
4.12003930 -0.66389753 3.29308810 -0.15760391
4.17280311 -0.57820366 3.29308810 -0.15837197
4.21810950 -0.48834381 3.29308810 -0.15893535
4.25563201 -0.39496544 3.29308810 -0.15933495
4.28510029 -0.29874133 3.29308810 -0.15960636
4.30630209 -0.20036479 3.29308810 -0.15977859
4.31908457 -0.10054460 3.29308810 -0.15987312
4.42620899 0.00000000 3.25422307 -0.16039123
4.42223720 0.10108969 3.25422307 -0.16038074
4.41034622 0.20155612 3.25422307 -0.16034533
4.39060935 0.30077989 3.25422307 -0.16027329
4.36314835 0.39814926 3.25422307 -0.16014546
4.32813249 0.49306390 3.25422307 -0.15993581
4.28577769 0.58493866 3.25422307 -0.15961216
4.23634499 0.67320702 3.25422307 -0.15913712
4.18013925 0.75732489 3.25422307 -0.15846921
4.11750692 0.83677357 3.25422307 -0.15756401
4.04883425 0.91106330 3.25422307 -0.15637555
3.97454452 0.97973597 3.25422307 -0.15485765
3.89509584 1.04236830 3.25422307 -0.15296535
3.81097797 1.09857404 3.25422307 -0.15065637
3.72270961 1.14800674 3.25422307 -0.14789246
3.63083485 1.19036154 3.25422307 -0.14464079
3.53592023 1.22537740 3.25422307 -0.14087520
3.43855087 1.25283840 3.25422307 -0.13657736
3.33932706 1.27257527 3.25422307 -0.13173782
3.23886064 1.28446625 3.25422307 -0.12635689
3.13777095 1.28843804 3.25422307 -0.12044541
3.03668126 1.28446625 3.25422307 -0.11402530
2.93621484 1.27257527 3.25422307 -0.10712997
2.83699108 1.25283840 3.25422307 -0.09980449
2.73962167 1.22537740 3.25422307 -0.09210565
2.64470705 1.19036154 3.25422307 -0.08410167
2.55283229 1.14800674 3.25422307 -0.07587173
2.46456393 1.09857404 3.25422307 -0.06750526
2.38044606 1.04236830 3.25422307 -0.05910090
2.30099738 0.97973597 3.25422307 -0.05076515
2.22670765 0.91106330 3.25422307 -0.04261068
2.15803498 0.83677357 3.25422307 -0.03475435
2.09540265 0.75732489 3.25422307 -0.02731485
2.03919690 0.67320702 3.25422307 -0.02041002
1.98976426 0.58493866 3.25422307 -0.01415404
1.94740941 0.49306390 3.25422307 -0.00865432
1.91239355 0.39814926 3.25422307 -0.00400840
1.88493255 0.30077989 3.25422307 -0.00030103
1.86519573 0.20155612 3.25422307 0.00239867
1.85330470 0.10108969 3.25422307 0.00403950
1.84933291 0.00000000 3.25422307 0.00458998
1.85330470 -0.10108969 3.25422307 0.00403950
1.86519573 -0.20155612 3.25422307 0.00239867
1.88493255 -0.30077989 3.25422307 -0.00030103
1.91239355 -0.39814926 3.25422307 -0.00400840
1.94740941 -0.49306390 3.25422307 -0.00865432
1.98976426 -0.58493866 3.25422307 -0.01415404
2.03919690 -0.67320702 3.25422307 -0.02041002
2.09540265 -0.75732489 3.25422307 -0.02731485
2.15803498 -0.83677357 3.25422307 -0.03475435
2.22670765 -0.91106330 3.25422307 -0.04261068
2.30099738 -0.97973597 3.25422307 -0.05076515
2.38044606 -1.04236830 3.25422307 -0.05910090
2.46456393 -1.09857404 3.25422307 -0.06750526
2.55283229 -1.14800674 3.25422307 -0.07587173
2.64470705 -1.19036154 3.25422307 -0.08410167
2.73962167 -1.22537740 3.25422307 -0.09210565
2.83699108 -1.25283840 3.25422307 -0.09980449
2.93621484 -1.27257527 3.25422307 -0.10712997
3.03668126 -1.28446625 3.25422307 -0.11402530
3.13777095 -1.28843804 3.25422307 -0.12044541
3.23886064 -1.28446625 3.25422307 -0.12635689
3.33932706 -1.27257527 3.25422307 -0.13173782
3.43855087 -1.25283840 3.25422307 -0.13657736
3.53592023 -1.22537740 3.25422307 -0.14087520
3.63083485 -1.19036154 3.25422307 -0.14464079
3.72270961 -1.14800674 3.25422307 -0.14789246
3.81097797 -1.09857404 3.25422307 -0.15065637
3.89509584 -1.04236830 3.25422307 -0.15296535
3.97454452 -0.97973597 3.25422307 -0.15485765
4.04883425 -0.91106330 3.25422307 -0.15637555
4.11750692 -0.83677357 3.25422307 -0.15756401
4.18013925 -0.75732489 3.25422307 -0.15846921
4.23634499 -0.67320702 3.25422307 -0.15913712
4.28577769 -0.58493866 3.25422307 -0.15961216
4.32813249 -0.49306390 3.25422307 -0.15993581
4.36314835 -0.39814926 3.25422307 -0.16014546
4.39060935 -0.30077989 3.25422307 -0.16027329
4.41034622 -0.20155612 3.25422307 -0.16034533
4.42223720 -0.10108969 3.25422307 -0.16038074
4.52779087 0.00000000 3.21214651 -0.16043223
4.52416743 0.10030072 3.21214651 -0.16043827
4.51331592 0.20007851 3.21214651 -0.16045306
4.49529300 0.29881319 3.21214651 -0.16046662
4.47019254 0.39599000 3.21214651 -0.16046262
4.43814548 0.49110230 3.21214651 -0.16041872
4.39931886 0.58365424 3.21214651 -0.16030712
4.35391511 0.67316320 3.21214651 -0.16009526
4.30217096 0.75916267 3.21214651 -0.15974653
4.24435615 0.84120421 3.21214651 -0.15922124
4.18077215 0.91886009 3.21214651 -0.15847749
4.11175043 0.99172548 3.21214651 -0.15747227
4.03765078 1.05942045 3.21214651 -0.15616252
3.95885960 1.12159208 3.21214651 -0.15450616
3.87578765 1.17791625 3.21214651 -0.15246324
3.78886800 1.22809932 3.21214651 -0.14999697
3.69855384 1.27187967 3.21214651 -0.14707475
3.60531603 1.30902901 3.21214651 -0.14366918
3.50964067 1.33935365 3.21214651 -0.13975888
3.41202651 1.36269560 3.21214651 -0.13532942
3.31298257 1.37893303 3.21214651 -0.13037396
3.21302511 1.38798132 3.21214651 -0.12489391
3.11267531 1.38979338 3.21214651 -0.11889948
3.01245639 1.38435963 3.21214651 -0.11241006
2.91289078 1.37170854 3.21214651 -0.10545451
2.81449757 1.35190594 3.21214651 -0.09807133
2.71778973 1.32505513 3.21214651 -0.09030873
2.62327152 1.29129613 3.21214651 -0.08222444
2.53143571 1.25080488 3.21214651 -0.07388551
2.44276099 1.20379258 3.21214651 -0.06536780
2.35770976 1.15050419 3.21214651 -0.05675539
2.27672541 1.09121764 3.21214651 -0.04813968
2.20023012 1.02624195 3.21214651 -0.03961831
2.12862274 0.95591597 3.21214651 -0.03129378
2.06227664 0.88060620 3.21214651 -0.02327188
2.00153760 0.80070544 3.21214651 -0.01565981
1.94672243 0.71663012 3.21214651 -0.00856403
1.89811678 0.62881865 3.21214651 -0.00208803
1.85597413 0.53772882 3.21214651 0.00367021
1.82051419 0.44383549 3.21214651 0.00862065
1.79192181 0.34762821 3.21214651 0.01268367
1.77034604 0.24960857 3.21214651 0.01579242
1.75589940 0.15028759 3.21214651 0.01789477
1.74865719 0.05018307 3.21214651 0.01895502
1.74865719 -0.05018307 3.21214651 0.01895502
1.75589940 -0.15028759 3.21214651 0.01789477
1.77034604 -0.24960857 3.21214651 0.01579242
1.79192181 -0.34762821 3.21214651 0.01268367
1.82051419 -0.44383549 3.21214651 0.00862065
1.85597413 -0.53772882 3.21214651 0.00367021
1.89811678 -0.62881865 3.21214651 -0.00208803
1.94672243 -0.71663012 3.21214651 -0.00856403
2.00153760 -0.80070544 3.21214651 -0.01565981
2.06227664 -0.88060620 3.21214651 -0.02327188
2.12862274 -0.95591597 3.21214651 -0.03129378
2.20023012 -1.02624195 3.21214651 -0.03961831
2.27672541 -1.09121764 3.21214651 -0.04813968
2.35770976 -1.15050419 3.21214651 -0.05675539
2.44276099 -1.20379258 3.21214651 -0.06536780
2.53143571 -1.25080488 3.21214651 -0.07388551
2.62327152 -1.29129613 3.21214651 -0.08222444
2.71778973 -1.32505513 3.21214651 -0.09030873
2.81449757 -1.35190594 3.21214651 -0.09807133
2.91289078 -1.37170854 3.21214651 -0.10545451
3.01245639 -1.38435963 3.21214651 -0.11241006
3.11267531 -1.38979338 3.21214651 -0.11889948
3.21302511 -1.38798132 3.21214651 -0.12489391
3.31298257 -1.37893303 3.21214651 -0.13037396
3.41202651 -1.36269560 3.21214651 -0.13532942
3.50964067 -1.33935365 3.21214651 -0.13975888
3.60531603 -1.30902901 3.21214651 -0.14366918
3.69855384 -1.27187967 3.21214651 -0.14707475
3.78886800 -1.22809932 3.21214651 -0.14999697
3.87578765 -1.17791625 3.21214651 -0.15246324
3.95885960 -1.12159208 3.21214651 -0.15450616
4.03765078 -1.05942045 3.21214651 -0.15616252
4.11175043 -0.99172548 3.21214651 -0.15747227
4.18077215 -0.91886009 3.21214651 -0.15847749
4.24435615 -0.84120421 3.21214651 -0.15922124
4.30217096 -0.75916267 3.21214651 -0.15974653
4.35391511 -0.67316320 3.21214651 -0.16009526
4.39931886 -0.58365424 3.21214651 -0.16030712
4.43814548 -0.49110230 3.21214651 -0.16041872
4.47019254 -0.39599000 3.21214651 -0.16046262
4.49529300 -0.29881319 3.21214651 -0.16046662
4.51331592 -0.20007851 3.21214651 -0.16045306
4.52416743 -0.10030072 3.21214651 -0.16043827
4.52779087 0.00000000 3.21214651 -0.16043223
4.62800096 0.00000000 3.16689992 -0.16004580
4.62460115 0.10060505 3.16689992 -0.16006584
4.61441730 0.20075106 3.16689992 -0.16012294
4.59749586 0.29998109 3.16689992 -0.16020818
4.57391399 0.39784238 3.16689992 -0.16030689
4.54377937 0.49388840 3.16689992 -0.16039893
4.50722943 0.58768090 3.16689992 -0.16045917
4.46443097 0.67879201 3.16689992 -0.16045794
4.41557931 0.76680589 3.16689992 -0.16036166
4.36089723 0.85132101 3.16689992 -0.16013356
4.30063434 0.93195177 3.16689992 -0.15973443
4.23506560 1.00833026 3.16689992 -0.15912343
4.16449011 1.08010794 3.16689992 -0.15825896
4.08922998 1.14695733 3.16689992 -0.15709954
4.00962853 1.20857343 3.16689992 -0.15560467
3.92604899 1.26467514 3.16689992 -0.15373578
3.83887274 1.31500638 3.16689992 -0.15145705
3.74849751 1.35933755 3.16689992 -0.14873626
3.65533564 1.39746634 3.16689992 -0.14554557
3.55981231 1.42921886 3.16689992 -0.14186226
3.46236325 1.45445013 3.16689992 -0.13766945
3.36343319 1.47304514 3.16689992 -0.13295665
3.26347345 1.48491898 3.16689992 -0.12772034
3.16294014 1.49001744 3.16689992 -0.12196440
3.06229205 1.48831730 3.16689992 -0.11570051
2.96198830 1.47982628 3.16689992 -0.10894847
2.86248667 1.46458318 3.16689992 -0.10173636
2.76424105 1.44265752 3.16689992 -0.09410072
2.66769974 1.41414938 3.16689992 -0.08608655
2.57330329 1.37918878 3.16689992 -0.07774724
2.48148241 1.33793525 3.16689992 -0.06914436
2.39265597 1.29057703 3.16689992 -0.06034740
2.30722934 1.23733018 3.16689992 -0.05143324
2.22559225 1.17843770 3.16689992 -0.04248555
2.14811725 1.11416831 3.16689992 -0.03359394
2.07515782 1.04481517 3.16689992 -0.02485301
2.00704686 0.97069482 3.16689992 -0.01636101
1.94409512 0.89214538 3.16689992 -0.00821844
1.88658983 0.80952529 3.16689992 -0.00052638