ITEM: TIMESTEP
0
ITEM: NUMBER OF ATOMS
16792
ITEM: BOX BOUNDS pp pp pp
-1.0000000000000000e+01 1.0000000000000000e+01
-1.0000000000000000e+01 1.0000000000000000e+01
-1.0000000000000000e+01 1.0000000000000000e+01
ITEM: ATOMS x y z q
1.27578526 0.17130028 3.03400627 -0.23130436
1.24548321 0.27449969 3.03400627 -0.24306423
1.24548321 0.06810087 3.03400627 -0.21253134
1.27578526 0.17130028 3.03400627 -0.23130436
1.37099156 0.17130028 3.02651339 -0.24089967
1.35167252 0.27464782 3.02651339 -0.25408290
1.29632469 0.36403770 3.02651339 -0.26089345
1.21242298 0.42739732 3.02651339 -0.26036941
1.21242298 -0.08479676 3.02651339 -0.18474449
1.29632469 -0.02143713 3.02651339 -0.20362366
1.35167252 0.06795275 3.02651339 -0.22324243
1.37099156 0.17130028 3.02651339 -0.24089967
1.46591544 0.17130028 3.01603368 -0.24990036
1.45178641 0.27409654 3.01603368 -0.26373547
1.41044726 0.36926887 3.01603368 -0.27317030
1.34496388 0.44975877 3.01603368 -0.27745013
1.26019285 0.50959668 3.01603368 -0.27625598
1.26019285 -0.16699611 3.01603368 -0.17593783
1.34496388 -0.10715820 3.01603368 -0.19433262
1.41044726 -0.02666830 3.01603368 -0.21376726
1.45178641 0.06850403 3.01603368 -0.23278597
1.46591544 0.17130028 3.01603368 -0.24990036
1.56046333 0.17130028 3.00257750 -0.25830875
1.54934501 0.27353196 3.00257750 -0.27254679
1.51650978 0.37098340 3.00257750 -0.28345054
1.46349308 0.45909788 3.00257750 -0.29045639
1.39277381 0.53375528 3.00257750 -0.29321575
1.30765886 0.59146463 3.00257750 -0.29161340
1.21212797 0.62952764 3.00257750 -0.28576829
1.21212797 -0.28692706 3.00257750 -0.15025431
1.30765886 -0.24886408 3.00257750 -0.16644338
1.39277381 -0.19115469 3.00257750 -0.18449639
1.46349308 -0.11649731 3.00257750 -0.20362578
1.51650978 -0.02838283 3.00257750 -0.22293758
1.54934501 0.06906861 3.00257750 -0.24148059
1.65454195 0.17130028 2.98615819 -0.26612861
1.64538756 0.27301346 2.98615819 -0.28066076
1.61821877 0.37145749 2.98615819 -0.29251596
1.57390866 0.46346830 2.98615819 -0.30126384
1.51388152 0.54608860 2.98615819 -0.30659562
1.44006662 0.61666287 2.98615819 -0.30833614
1.35483642 0.67292285 2.98615819 -0.30644919
1.26093026 0.71306024 2.98615819 -0.30103540
1.26093026 -0.37045968 2.98615819 -0.14004717
1.35483642 -0.33032227 2.98615819 -0.15626057
1.44006662 -0.27406231 2.98615819 -0.17404497
1.51388152 -0.20348802 2.98615819 -0.19287838
1.57390866 -0.12086773 2.98615819 -0.21216199
1.61821877 -0.02885692 2.98615819 -0.23124428
1.64538756 0.06958711 2.98615819 -0.24945274
1.74805832 0.17130028 2.96679185 -0.27336519
1.74028641 0.27253065 2.96679185 -0.28813448
1.71715285 0.37138827 2.96679185 -0.30066876
1.67919986 0.46555600 2.96679185 -0.31062995
1.62731701 0.55282661 2.96679185 -0.31775550
1.56272043 0.63115459 2.96679185 -0.32186624
1.48692413 0.69870398 2.96679185 -0.32287084
1.40170483 0.75389143 2.96679185 -0.32076732
1.30905991 0.79542346 2.96679185 -0.31564110
1.21116090 0.82232656 2.96679185 -0.30765951
1.21116090 -0.47972602 2.96679185 -0.11470260
1.30905991 -0.45282290 2.96679185 -0.12920463
1.40170483 -0.41129087 2.96679185 -0.14538587
1.48692413 -0.35610339 2.96679185 -0.16294352
1.56272043 -0.28855402 2.96679185 -0.18150930
1.62731701 -0.21022606 2.96679185 -0.20065654
1.67919986 -0.12295543 2.96679185 -0.21991393
1.71715285 -0.02878771 2.96679185 -0.23878402
1.74028641 0.07006991 2.96679185 -0.25676377
1.84092032 0.17130028 2.94449768 -0.28002530
1.83417474 0.27206769 2.94449768 -0.29499780
1.81405834 0.37103690 2.94449768 -0.30805094
1.78093016 0.46644180 2.94449768 -0.31891232
1.73538131 0.55657990 2.94449768 -0.32735995
1.67822464 0.63984267 2.94449768 -0.33322716
1.61048014 0.71474429 2.94449768 -0.33640606
1.53335666 0.77994816 2.94449768 -0.33684946
1.44823050 0.83429067 2.94449768 -0.33457105
1.35662070 0.87680210 2.94449768 -0.32964401
1.26016210 0.90672383 2.94449768 -0.32219770
1.26016210 -0.56412327 2.94449768 -0.10304433
1.35662070 -0.53420154 2.94449768 -0.11769907
1.44823050 -0.49169009 2.94449768 -0.13381552
1.53335666 -0.43734758 2.94449768 -0.15117257
1.61048014 -0.37214373 2.94449768 -0.16949797
1.67822464 -0.29724210 2.94449768 -0.18847311
1.73538131 -0.21397933 2.94449768 -0.20774199
1.78093016 -0.12384123 2.94449768 -0.22692317
1.81405834 -0.02843633 2.94449768 -0.24562312
1.83417474 0.07053288 2.94449768 -0.26344976
1.93303617 0.17130028 2.91929763 -0.28611732
1.92708319 0.27161182 2.91929763 -0.30127061
1.90930782 0.37051521 2.91929763 -0.31474025
1.87995961 0.46662206 2.91929763 -0.32630207
1.83945053 0.55858321 2.91929763 -0.33576741
1.78834928 0.64510777 2.91929763 -0.34298627
1.72737311 0.72498117 2.91929763 -0.34784980
1.65737808 0.79708206 2.91929763 -0.35029175
1.57934670 0.86039830 2.91929763 -0.35028952
1.49437447 0.91404119 2.91929763 -0.34786387
1.40365406 0.95725759 2.91929763 -0.34307814
1.30845914 0.98944087 2.91929763 -0.33603615
1.21012593 1.01013925 2.91929763 -0.32687902
1.21012593 -0.66753869 2.91929763 -0.07750725
1.30845914 -0.64684030 2.91929763 -0.09079339
1.40365406 -0.61465702 2.91929763 -0.10551497
1.49437447 -0.57144062 2.91929763 -0.12154648
1.57934670 -0.51779776 2.91929763 -0.13872070
1.65737808 -0.45448148 2.91929763 -0.15682869
1.72737311 -0.38238059 2.91929763 -0.17562348
1.78834928 -0.30250723 2.91929763 -0.19482653
1.83945053 -0.21598267 2.91929763 -0.21413614
1.87995961 -0.12402149 2.91929763 -0.23323672
1.90930782 -0.02791464 2.91929763 -0.25180837
1.92708319 0.07098874 2.91929763 -0.26953594
2.02431502 0.17130028 2.89121659 -0.29165114
2.01899303 0.27115379 2.89121659 -0.30696903
2.00308745 0.36987591 2.89121659 -0.32078534
1.97677847 0.46634810 2.89121659 -0.33291241
1.94036410 0.55947725 2.89121659 -0.34318859
1.89425707 0.64820822 2.89121659 -0.35148051
1.83897972 0.73153566 2.89121659 -0.35768451
1.77515833 0.80851541 2.89121659 -0.36172804
1.70351607 0.87827523 2.89121659 -0.36357036
1.62486470 0.94002473 2.89121659 -0.36320301
1.54009531 0.99306430 2.89121659 -0.36064972
1.45016835 1.03679295 2.89121659 -0.35596578
1.35610285 1.07071520 2.89121659 -0.34923670
1.25896447 1.09444673 2.89121659 -0.34057636
1.25896447 -0.75184616 2.89121659 -0.06447336
1.35610285 -0.72811464 2.89121659 -0.07791031
1.45016835 -0.69419238 2.89121659 -0.09264312
1.54009531 -0.65046373 2.89121659 -0.10857699
1.62486470 -0.59742416 2.89121659 -0.12558149
1.70351607 -0.53567466 2.89121659 -0.14349112
1.77515833 -0.46591482 2.89121659 -0.16210841
1.83897972 -0.38893509 2.89121659 -0.18120891
1.89425707 -0.30560768 2.89121659 -0.20054747
1.94036410 -0.21687671 2.89121659 -0.21986513
1.97677847 -0.12374753 2.89121659 -0.23889626
2.00308745 -0.02727535 2.89121659 -0.25737525
2.01899303 0.07144678 2.89121659 -0.27504277
2.02431502 0.17130028 2.89121659 -0.29165114
2.11466675 0.17130028 2.86028228 -0.29663824
2.10970815 0.27223490 2.86028228 -0.31233942
2.09488014 0.37219746 2.86028228 -0.32663807
2.07032542 0.47022528 2.86028228 -0.33936770
2.03628056 0.56537429 2.86028228 -0.35038299
1.99307341 0.65672813 2.86028228 -0.35956120
1.94112009 0.74340706 2.86028228 -0.36680341
1.88092091 0.82457625 2.86028228 -0.37203546
1.81305560 0.89945411 2.86028228 -0.37520862
1.73817780 0.96731936 2.86028228 -0.37630013
1.65700855 1.02751859 2.86028228 -0.37531330
1.57032963 1.07947192 2.86028228 -0.37227755
1.47897579 1.12267906 2.86028228 -0.36724782
1.38382680 1.15672393 2.86028228 -0.36030371
1.28579898 1.18127859 2.86028228 -0.35154808
1.18583639 1.19610666 2.86028228 -0.34110499
1.28579898 -0.83867802 2.86028228 -0.04806823
1.38382680 -0.81412336 2.86028228 -0.06152844
1.47897579 -0.78007850 2.86028228 -0.07623285
1.57032963 -0.73687135 2.86028228 -0.09211069
1.65700855 -0.68491802 2.86028228 -0.10905816
1.73817780 -0.62471880 2.86028228 -0.12693910
1.81305560 -0.55685354 2.86028228 -0.14558765
1.88092091 -0.48197570 2.86028228 -0.16481244
1.94112009 -0.40080649 2.86028228 -0.18440181
1.99307341 -0.31412757 2.86028228 -0.20412963
2.03628056 -0.22277371 2.86028228 -0.22376123
2.07032542 -0.12762471 2.86028228 -0.24305910
2.09488014 -0.02959690 2.86028228 -0.26178812
2.10970815 0.07036567 2.86028228 -0.27972021
2.11466675 0.17130028 2.86028228 -0.29663824
2.20400226 0.17130028 2.82652518 -0.30109151
2.19949711 0.27161568 2.82652518 -0.31691699
2.18601786 0.37112339 2.82652518 -0.33146462
2.16367309 0.46902225 2.82652518 -0.34459194
2.13264268 0.56452401 2.82652518 -0.35617286
2.09317650 0.65685979 2.82652518 -0.36609870
2.04559227 0.74528611 2.82652518 -0.37427895
1.99027312 0.82909103 2.82652518 -0.38064186
1.92766444 0.90759983 2.82652518 -0.38513519
1.85827034 0.98018038 2.82652518 -0.38772636
1.78264951 1.04624828 2.82652518 -0.38840301
1.70141090 1.10527163 2.82652518 -0.38717299
1.61520844 1.15677515 2.82652518 -0.38406430
1.52473632 1.20034425 2.82652518 -0.37912493
1.43072284 1.23562808 2.82652518 -0.37242218
1.33392509 1.26234258 2.82652518 -0.36404204
1.23512230 1.28027263 2.82652518 -0.35408763
1.23512230 -0.93767206 2.82652518 -0.02158093
1.33392509 -0.91974201 2.82652518 -0.03387832
1.43072284 -0.89302752 2.82652518 -0.04736542
1.52473632 -0.85774369 2.82652518 -0.06201494
1.61520844 -0.81417459 2.82652518 -0.07777112
1.70141090 -0.76267106 2.82652518 -0.09454905
1.78264951 -0.70364772 2.82652518 -0.11223565
1.85827034 -0.63757981 2.82652518 -0.13069213
1.92766444 -0.56499927 2.82652518 -0.14975753
1.99027312 -0.48649048 2.82652518 -0.16925296
2.04559227 -0.40268555 2.82652518 -0.18898629
2.09317650 -0.31425922 2.82652518 -0.20875689
2.13264268 -0.22192346 2.82652518 -0.22836019
2.16367309 -0.12642168 2.82652518 -0.24759185
2.18601786 -0.02852283 2.82652518 -0.26625149
2.19949711 0.07098489 2.82652518 -0.28414586
2.29223337 0.17130028 2.78997868 -0.30502538
2.28799910 0.27232718 2.78997868 -0.32117301
2.27532595 0.37264546 2.78997868 -0.33611193
2.25430280 0.47155144 2.78997868 -0.34971422
2.22507721 0.56835139 2.78997868 -0.36186578
2.18785410 0.66236630 2.78997868 -0.37246689
2.14289454 0.75293669 2.78997868 -0.38143283
2.09051390 0.83942739 2.78997868 -0.38869436
2.03107965 0.92123159 2.78997868 -0.39419814
1.96500862 0.99777562 2.78997868 -0.39790705
1.89276432 1.06852251 2.78997868 -0.39980056
1.81485337 1.13297600 2.78997868 -0.39987482
1.73182238 1.19068408 2.78997868 -0.39814289
1.64425375 1.24124186 2.78997868 -0.39463468
1.55276158 1.28429480 2.78997868 -0.38939676
1.45798778 1.31954084 2.78997868 -0.38249202
1.36059699 1.34673282 2.78997868 -0.37399911
1.26127242 1.36568000 2.78997868 -0.36401164
1.26127242 -1.02307943 2.78997868 -0.00405468
1.36059699 -1.00413230 2.78997868 -0.01632117
1.45798778 -0.97694028 2.78997868 -0.02974055
1.55276158 -0.94169423 2.78997868 -0.04429811
1.64425375 -0.89864129 2.78997868 -0.05995191
1.73182238 -0.84808351 2.78997868 -0.07663249
1.81485337 -0.79037543 2.78997868 -0.09424392
1.89276432 -0.72592194 2.78997868 -0.11266608
1.96500862 -0.65517505 2.78997868 -0.13175774
2.03107965 -0.57863102 2.78997868 -0.15136040
2.09051390 -0.49682681 2.78997868 -0.17130239
2.14289454 -0.41033614 2.78997868 -0.19140301
2.18785410 -0.31976571 2.78997868 -0.21147662
2.22507721 -0.22575081 2.78997868 -0.23133628
2.25430280 -0.12895087 2.78997868 -0.25079716
2.27532595 -0.03004489 2.78997868 -0.26967926
2.28799910 0.07027338 2.78997868 -0.28780985
2.37927298 0.17130028 2.75067877 -0.30845560
2.37538072 0.27160424 2.75067877 -0.32470032
2.36372740 0.37130496 2.75067877 -0.33982656
2.34438302 0.46980282 2.75067877 -0.35372314
2.31746400 0.56650546 2.75067877 -0.36628996
2.28313221 0.66083126 2.75067877 -0.37743853
2.24159414 0.75221299 2.75067877 -0.38709209
2.19309957 0.84010103 2.75067877 -0.39518617
2.13794017 0.92396685 2.75067877 -0.40166881
2.07644763 1.00330605 2.75067877 -0.40650075
2.00899185 1.07764144 2.75067877 -0.40965575
1.93597850 1.14652600 2.75067877 -0.41112082
1.85784668 1.20954543 2.75067877 -0.41089630
1.77506625 1.26632072 2.75067877 -0.40899605
1.68813511 1.31651046 2.75067877 -0.40544744
1.59757605 1.35981275 2.75067877 -0.40029128
1.50393368 1.39596718 2.75067877 -0.39358170
1.40777121 1.42475637 2.75067877 -0.38538575
1.30966698 1.44600706 2.75067877 -0.37578296
1.21021097 1.45959156 2.75067877 -0.36486454
1.21021097 -1.11699099 2.75067877 0.02258382
1.30966698 -1.10340649 2.75067877 0.01139119
1.40777121 -1.08215580 2.75067877 -0.00088722
1.50393368 -1.05336661 2.75067877 -0.01426539
1.59757605 -1.01721218 2.75067877 -0.02873332
1.68813511 -0.97390989 2.75067877 -0.04425610
1.77506625 -0.92372015 2.75067877 -0.06077410
1.85784668 -0.86694486 2.75067877 -0.07820416
1.93597850 -0.80392543 2.75067877 -0.09644176
2.00899185 -0.73504088 2.75067877 -0.11536376
2.07644763 -0.66070548 2.75067877 -0.13483168
2.13794017 -0.58136629 2.75067877 -0.15469512
2.19309957 -0.49750050 2.75067877 -0.17479535
2.24159414 -0.40961244 2.75067877 -0.19496863
2.28313221 -0.31823072 2.75067877 -0.21504936
2.31746400 -0.22390489 2.75067877 -0.23487286
2.34438302 -0.12720225 2.75067877 -0.25427775
2.36372740 -0.02870439 2.75067877 -0.27310794
2.37538072 0.07099633 2.75067877 -0.29121422
2.46503521 0.17130028 2.70866434 -0.31139926
2.46135341 0.27204356 2.70866434 -0.32791984
2.45032764 0.37224932 2.70866434 -0.34337243
2.43201669 0.47138293 2.70866434 -0.35765638
2.40651835 0.56891549 2.70866434 -0.37068060
2.37396862 0.66432658 2.70866434 -0.38236386
2.33454117 0.75710713 2.70866434 -0.39263487
2.28844631 0.84676221 2.70866434 -0.40143267
2.23593004 0.93281337 2.70866434 -0.40870672
2.17727252 1.01480152 2.70866434 -0.41441711
2.11278675 1.09228927 2.70866434 -0.41853487
2.04281679 1.16486310 2.70866434 -0.42104201
1.96773589 1.23213589 2.70866434 -0.42193181
1.88794473 1.29374860 2.70866434 -0.42120884
1.80386893 1.34937262 2.70866434 -0.41888924
1.71595718 1.39871107 2.70866434 -0.41500065
1.62467848 1.44150080 2.70866434 -0.40958220
1.53051980 1.47751341 2.70866434 -0.40268449
1.43398357 1.50655686 2.70866434 -0.39436938
1.33558486 1.52847612 2.70866434 -0.38470966
1.23584864 1.54315422 2.70866434 -0.37378855
1.23584864 -1.20055365 2.70866434 0.04112894
1.33558486 -1.18587555 2.70866434 0.03002626
1.43398357 -1.16395630 2.70866434 0.01785885
1.53051980 -1.13491284 2.70866434 0.00460618
1.62467848 -1.09890023 2.70866434 -0.00972892
1.71595718 -1.05611050 2.70866434 -0.02511964
1.80386893 -1.00677205 2.70866434 -0.04151563
1.88794473 -0.95114803 2.70866434 -0.05884418
1.96773589 -0.88953532 2.70866434 -0.07701227
2.04281679 -0.82226253 2.70866434 -0.09590911
2.11278675 -0.74968871 2.70866434 -0.11540908
2.17727252 -0.67220095 2.70866434 -0.13537495
2.23593004 -0.59021280 2.70866434 -0.15566101
2.28844631 -0.50416163 2.70866434 -0.17611623
2.33454117 -0.41450658 2.70866434 -0.19658709
2.37396862 -0.32172600 2.70866434 -0.21692013
2.40651835 -0.22631491 2.70866434 -0.23696417
2.43201669 -0.12878237 2.70866434 -0.25657213
2.45032764 -0.02964875 2.70866434 -0.27560250
2.46135341 0.07055701 2.70866434 -0.29392057
2.54943540 0.17130028 2.66397671 -0.31387475
2.54602120 0.27124359 2.66397671 -0.33047068
2.53579465 0.37072092 2.66397671 -0.34606675
2.51880330 0.46926845 2.66397671 -0.36057446
2.49512649 0.56642672 2.66397671 -0.37391326
2.46487456 0.66174272 2.66397671 -0.38601070
2.42818857 0.75477209 2.66397671 -0.39680242
2.38523950 0.84508101 2.66397671 -0.40623242
2.33622771 0.93224842 2.66397671 -0.41425311
2.28138164 1.01586797 2.66397671 -0.42082549
2.22095703 1.09554980 2.66397671 -0.42591925
2.15523563 1.17092228 2.66397671 -0.42951295
2.08452377 1.24163408 2.66397671 -0.43159422
2.00915129 1.30735554 2.66397671 -0.43215977
1.92946951 1.36778014 2.66397671 -0.43121568
1.84584992 1.42262622 2.66397671 -0.42877739
1.75868251 1.47163801 2.66397671 -0.42486981
1.66837358 1.51458702 2.66397671 -0.41952744
1.57534421 1.55127306 2.66397671 -0.41279422
1.48002822 1.58152500 2.66397671 -0.40472354
1.38286994 1.60520181 2.66397671 -0.39537814
1.28432242 1.62219310 2.66397671 -0.38482974
1.18484508 1.63241971 2.66397671 -0.37315867
1.28432242 -1.27959258 2.66397671 0.05776614
1.38286994 -1.26260124 2.66397671 0.04668398
1.48002822 -1.23892443 2.66397671 0.03456525
1.57534421 -1.20867249 2.66397671 0.02139010
1.66837358 -1.17198645 2.66397671 0.00716061
1.75868251 -1.12903744 2.66397671 -0.00809914
1.84584992 -1.08002565 2.66397671 -0.02434368
1.92946951 -1.02517958 2.66397671 -0.04150746
2.00915129 -0.96475497 2.66397671 -0.05950672
2.08452377 -0.89903352 2.66397671 -0.07824180
2.15523563 -0.82832171 2.66397671 -0.09759979
2.22095703 -0.75294923 2.66397671 -0.11745727
2.28138164 -0.67326740 2.66397671 -0.13768310
2.33622771 -0.58964785 2.66397671 -0.15814114
2.38523950 -0.50248042 2.66397671 -0.17869269
2.42818857 -0.41217149 2.66397671 -0.19919875
2.46487456 -0.31914216 2.66397671 -0.21952191
2.49512649 -0.22382615 2.66397671 -0.23952799
2.51880330 -0.12666788 2.66397671 -0.25908729
2.53579465 -0.02812035 2.66397671 -0.27807563
2.54602120 0.07135698 2.66397671 -0.29637514
2.63239025 0.17130028 2.61666009 -0.31590153
2.62914491 0.27146893 2.61666009 -0.33273491
2.61942245 0.37121743 2.61666009 -0.34860660
2.60326371 0.47012742 2.61666009 -0.36343613
2.58073643 0.56778401 2.61666009 -0.37714987
2.55193507 0.66377762 2.61666009 -0.38968128
2.51698045 0.75770563 2.61666009 -0.40097077
2.47601924 0.84917398 2.61666009 -0.41096580
2.42922316 0.93779917 2.61666009 -0.41962116
2.37678855 1.02320934 2.61666009 -0.42689871
2.31893532 1.10504636 2.61666009 -0.43276785
2.25590616 1.18296693 2.61666009 -0.43720542
2.18796533 1.25664414 2.61666009 -0.44019586
2.11539792 1.32576910 2.61666009 -0.44173143
2.03850823 1.39005183 2.61666009 -0.44181222
1.95761877 1.44922265 2.61666009 -0.44044644
1.87306888 1.50303345 2.61666009 -0.43765030
1.78521311 1.55125846 2.61666009 -0.43344835
1.69441999 1.59369549 2.61666009 -0.42787330
1.60107031 1.63016647 2.61666009 -0.42096631
1.50555571 1.66051848 2.61666009 -0.41277672
1.40827668 1.68462418 2.61666009 -0.40336226
1.30964132 1.70238246 2.61666009 -0.39278864
1.21006333 1.71371886 2.61666009 -0.38112954
1.30964132 -1.35978190 2.61666009 0.07737877
1.40827668 -1.34202362 2.61666009 0.06645459
1.50555571 -1.31791791 2.61666009 0.05449757
1.60107031 -1.28756591 2.61666009 0.04148458
1.69441999 -1.25109492 2.61666009 0.02741375
1.78521311 -1.20865789 2.61666009 0.01230444
1.87306888 -1.16043288 2.61666009 -0.00380352
1.95761877 -1.10662209 2.61666009 -0.02085110
2.03850823 -1.04745126 2.61666009 -0.03876181
2.11539792 -0.98316853 2.61666009 -0.05744392
2.18796533 -0.91404357 2.61666009 -0.07679288
2.25590616 -0.84036636 2.61666009 -0.09669391
2.31893532 -0.76244579 2.61666009 -0.11702456
2.37678855 -0.68060878 2.61666009 -0.13765725
2.42922316 -0.59519860 2.61666009 -0.15846162
2.47601924 -0.50657344 2.61666009 -0.17930657
2.51698045 -0.41510504 2.61666009 -0.20006212
2.55193507 -0.32117706 2.61666009 -0.22060089
2.58073643 -0.22518345 2.61666009 -0.24079936
2.60326371 -0.12752685 2.61666009 -0.26053880
2.61942245 -0.02861687 2.61666009 -0.27970603
2.62914491 0.07113163 2.61666009 -0.29819387
2.71381794 0.17130028 2.56676113 -0.31750023
2.71072844 0.27157784 2.56676113 -0.33455059
2.70147160 0.37147500 2.56676113 -0.35067379
2.68608255 0.47061284 2.56676113 -0.36579649
2.66461967 0.56861529 2.56676113 -0.37985144
2.63716443 0.66511056 2.56676113 -0.39277742
2.60382088 0.75973265 2.56676113 -0.40451935
2.56471555 0.85212261 2.56676113 -0.41502819
2.51999676 0.94193003 2.56676113 -0.42426107
2.46983422 1.02881412 2.56676113 -0.43218132
2.41441811 1.11244541 2.56676113 -0.43875854
2.35395874 1.19250661 2.56676113 -0.44396864
2.28868534 1.26869397 2.56676113 -0.44779409
2.21884562 1.34071861 2.56676113 -0.45022395
2.14470443 1.40830722 2.56676113 -0.45125392
2.06654308 1.47120345 2.56676113 -0.45088662
1.98465802 1.52916865 2.56676113 -0.44913160
1.89935987 1.58198306 2.56676113 -0.44600543
1.81097218 1.62944621 2.56676113 -0.44153189
1.71983028 1.67137814 2.56676113 -0.43574196
1.62627988 1.70761978 2.56676113 -0.42867399
1.53067585 1.73803360 2.56676113 -0.42037362
1.43338084 1.76250427 2.56676113 -0.41089388
1.33476394 1.78093895 2.56676113 -0.40029509
1.23519919 1.79326777 2.56676113 -0.38864475
1.23519919 -1.45066720 2.56676113 0.10725428
1.33476394 -1.43833844 2.56676113 0.09750387
1.43338084 -1.41990371 2.56676113 0.08676452
1.53067585 -1.39543303 2.56676113 0.07499068
1.62627988 -1.36501922 2.56676113 0.06215709
1.71983028 -1.32877758 2.56676113 0.04825907
1.81097218 -1.28684564 2.56676113 0.03331239
1.89935987 -1.23938249 2.56676113 0.01735246
1.98465802 -1.18656808 2.56676113 0.00043311
2.06654308 -1.12860288 2.56676113 -0.01737515
2.14470443 -1.06570665 2.56676113 -0.03598711
2.21884562 -0.99811805 2.56676113 -0.05530518
2.28868534 -0.92609341 2.56676113 -0.07522179
2.35395874 -0.84990605 2.56676113 -0.09562185
2.41441811 -0.76984485 2.56676113 -0.11638507
2.46983422 -0.68621356 2.56676113 -0.13738818
2.51999676 -0.59932947 2.56676113 -0.15850694
2.56471555 -0.50952207 2.56676113 -0.17961781
2.60382088 -0.41713210 2.56676113 -0.20059945
2.63716443 -0.32251000 2.56676113 -0.22133387
2.66461967 -0.22601471 2.56676113 -0.24170736
2.68608255 -0.12801227 2.56676113 -0.26161116
2.70147160 -0.02887444 2.56676113 -0.28094196
2.71072844 0.07102273 2.56676113 -0.29960217
2.71381794 0.17130028 2.56676113 -0.31750023
2.79363810 0.17130028 2.51432911 -0.31869246
2.79069291 0.27158194 2.51432911 -0.33594056
2.78186751 0.37151791 2.51432911 -0.35229284
2.76719232 0.47076369 2.51432911 -0.36768243
2.74671793 0.56897714 2.51432911 -0.38204780
2.72051489 0.66581976 2.51432911 -0.39533275
2.68867356 0.76095764 2.51432911 -0.40748636
2.65130372 0.85406284 2.51432911 -0.41846295
2.60853415 0.94481442 2.51432911 -0.42822217
2.56051235 1.03289953 2.51432911 -0.43672890
2.50740377 1.11801453 2.51432911 -0.44395342
2.44939153 1.19986604 2.51432911 -0.44987144
2.38667558 1.27817185 2.51432911 -0.45446419
2.31947222 1.35266203 2.51432911 -0.45771849
2.24801301 1.42307983 2.51432911 -0.45962691
2.17254427 1.48918250 2.51432911 -0.46018786
2.09332626 1.55074214 2.51432911 -0.45940568
2.01063198 1.60754654 2.51432911 -0.45729079
1.92474650 1.65939990 2.51432911 -0.45385970
1.83596595 1.70612353 2.51432911 -0.44913532
1.74459629 1.74755624 2.51432911 -0.44314681
1.65095255 1.78355531 2.51432911 -0.43592977
1.55535746 1.81399658 2.51432911 -0.42752642
1.45814066 1.83877514 2.51432911 -0.41798545
1.35963722 1.85780561 2.51432911 -0.40736214
1.26018671 1.87102228 2.51432911 -0.39571844
1.26018671 -1.52842172 2.51432911 0.12767162
1.35963722 -1.51520505 2.51432911 0.11813363
1.45814066 -1.49617457 2.51432911 0.10760132
1.55535746 -1.47139602 2.51432911 0.09602841
1.65095255 -1.44095474 2.51432911 0.08338840
1.74459629 -1.40495567 2.51432911 0.06967474
1.83596595 -1.36352297 2.51432911 0.05490052
1.92474650 -1.31679934 2.51432911 0.03909774
2.01063198 -1.26494597 2.51432911 0.02231601
2.09332626 -1.20814157 2.51432911 0.00462104
2.17254427 -1.14658193 2.51432911 -0.01390738
2.24801301 -1.08047926 2.51432911 -0.03317744
2.31947222 -1.01006147 2.51432911 -0.05308767
2.38667558 -0.93557128 2.51432911 -0.07352914
2.44939153 -0.85726547 2.51432911 -0.09438777
2.50740377 -0.77541396 2.51432911 -0.11554638
2.56051235 -0.69029896 2.51432911 -0.13688658
2.60853415 -0.60221385 2.51432911 -0.15829046
2.65130372 -0.51146227 2.51432911 -0.17964194
2.68867356 -0.41835706 2.51432911 -0.20082794
2.72051489 -0.32321918 2.51432911 -0.22173924
2.74671793 -0.22637659 2.51432911 -0.24227119
2.76719232 -0.12816312 2.51432911 -0.26232411
2.78186751 -0.02891735 2.51432911 -0.28180365
2.79069291 0.07101862 2.51432911 -0.30062087
2.79363810 0.17130028 2.51432911 -0.31869246
2.87177193 0.17130028 2.45941573 -0.31950068
2.86896083 0.27149089 2.45941573 -0.33692815
2.86053644 0.37136626 2.45941573 -0.35348841
2.84652526 0.47061215 2.45941573 -0.36912048
2.82697133 0.56891629 2.45941573 -0.38376803
2.80193623 0.66596936 2.45941573 -0.39737943
2.77149871 0.76146607 2.45941573 -0.40990770
2.73575455 0.85510585 2.45941573 -0.42131039
2.69481615 0.94659415 2.45941573 -0.43154962
2.64881235 1.03564310 2.45941573 -0.44059199
2.59788796 1.12197251 2.45941573 -0.44840882
2.54220314 1.20531074 2.45941573 -0.45497595
2.48193311 1.28539559 2.45941573 -0.46027404
2.41726752 1.36197507 2.45941573 -0.46428845
2.34840979 1.43480824 2.45941573 -0.46700949
2.27557657 1.50366597 2.45941573 -0.46843249
2.19899709 1.56833161 2.45941573 -0.46855777
2.11891223 1.62860164 2.45941573 -0.46739097
2.03557400 1.68428646 2.45941573 -0.46494290
1.94924465 1.73521086 2.45941573 -0.46122985
1.86019569 1.78121465 2.45941573 -0.45627359
1.76870739 1.82215300 2.45941573 -0.45010150
1.67506757 1.85789721 2.45941573 -0.44274667
1.57957091 1.88833473 2.45941573 -0.43424791
1.48251778 1.91336983 2.45941573 -0.42465000
1.38421368 1.93292377 2.45941573 -0.41400358
1.28496775 1.94693495 2.45941573 -0.40236533
1.18509242 1.95535934 2.45941573 -0.38979796
1.28496775 -1.60433438 2.45941573 0.14855827
1.38421368 -1.59032320 2.45941573 0.13925525
1.48251778 -1.57076927 2.45941573 0.12894806
1.57957091 -1.54573417 2.45941573 0.11759050
1.67506757 -1.51529665 2.45941573 0.10515557
1.76870739 -1.47955243 2.45941573 0.09163554
1.86019569 -1.43861408 2.45941573 0.07704161
1.94924465 -1.39261029 2.45941573 0.06140312
2.03557400 -1.34168590 2.45941573 0.04476636
2.11891223 -1.28600108 2.45941573 0.02719308
2.19899709 -1.22573104 2.45941573 0.00875864
2.27557657 -1.16106540 2.45941573 -0.01045002
2.34840979 -1.09220768 2.45941573 -0.03033649
2.41726752 -1.01937450 2.45941573 -0.05079711
2.48193311 -0.94279503 2.45941573 -0.07172304
2.54220314 -0.86271017 2.45941573 -0.09300232
2.59788796 -0.77937194 2.45941573 -0.11452159
2.64881235 -0.69304253 2.45941573 -0.13616779
2.69481615 -0.60399358 2.45941573 -0.15782941
2.73575455 -0.51250531 2.45941573 -0.17939768
2.77149871 -0.41886550 2.45941573 -0.20076739
2.80193623 -0.32336882 2.45941573 -0.22183756
2.82697133 -0.22631573 2.45941573 -0.24251188
2.84652526 -0.12801158 2.45941573 -0.26269900
2.86053644 -0.02876569 2.45941573 -0.28231271
2.86896083 0.07110968 2.45941573 -0.30127189
2.87177193 0.17130028 2.45941573 -0.31950068
2.94814233 0.17130028 2.40207522 -0.31994819
2.94545623 0.27131275 2.40207522 -0.33753735
2.93740565 0.37103686 2.40207522 -0.35428559
2.92401382 0.47018508 2.40207522 -0.37013719
2.90531937 0.56847151 2.40207522 -0.38504063
2.88137623 0.66561285 2.40207522 -0.39894855
2.85225334 0.76132891 2.40207522 -0.41181761
2.81803469 0.85534376 2.40207522 -0.42360839
2.77881902 0.94738638 2.40207522 -0.43428544
2.73471932 1.03719131 2.40207522 -0.44381723
2.68586279 1.12449970 2.40207522 -0.45217621
2.63239030 1.20905969 2.40207522 -0.45933880
2.57445595 1.29062762 2.40207522 -0.46528541
2.51222685 1.36896820 2.40207522 -0.47000064
2.44588239 1.44385563 2.40207522 -0.47347320
2.37561388 1.51507392 2.40207522 -0.47569609
2.30162393 1.58241777 2.40207522 -0.47666676
2.22412580 1.64569300 2.40207522 -0.47638698
2.14334307 1.70471719 2.40207522 -0.47486319
2.05950852 1.75932011 2.40207522 -0.47210639
1.97286393 1.80934438 2.40207522 -0.46813236
1.88365914 1.85464574 2.40207522 -0.46296178
1.79215131 1.89509359 2.40207522 -0.45662017
1.69860430 1.93057131 2.40207522 -0.44913815
1.60328783 1.96097655 2.40207522 -0.44055150
1.50647675 1.98622174 2.40207522 -0.43090123
1.40845009 2.00623399 2.40207522 -0.42023370
1.30949061 2.02095570 2.40207522 -0.40860070
1.20988357 2.03034436 2.40207522 -0.39605964
1.30949061 -1.67835513 2.40207522 0.16990073
1.40845009 -1.66363343 2.40207522 0.16085064
1.50647675 -1.64362117 2.40207522 0.15078299
1.60328783 -1.61837599 2.40207522 0.13965224
1.69860430 -1.58797075 2.40207522 0.12743147
1.79215131 -1.55249303 2.40207522 0.11411237
1.88365914 -1.51204517 2.40207522 0.09970480
1.97286393 -1.46674381 2.40207522 0.08423612
2.05950852 -1.41671954 2.40207522 0.06774997
2.14334307 -1.36211663 2.40207522 0.05030489
2.22412580 -1.30309244 2.40207522 0.03197256
2.30162393 -1.23981721 2.40207522 0.01283588
2.37561388 -1.17247335 2.40207522 -0.00701303
2.44588239 -1.10125501 2.40207522 -0.02747495
2.51222685 -1.02636763 2.40207522 -0.04844552
2.57445595 -0.94802705 2.40207522 -0.06981721
2.63239030 -0.86645913 2.40207522 -0.09148100
2.68586279 -0.78189913 2.40207522 -0.11332798
2.73471932 -0.69459075 2.40207522 -0.13525063
2.77881902 -0.60478581 2.40207522 -0.15714393
2.81803469 -0.51274323 2.40207522 -0.17890618
2.85225334 -0.41872836 2.40207522 -0.20043967
2.88137623 -0.32301228 2.40207522 -0.22165112
2.90531937 -0.22587097 2.40207522 -0.24245196
2.92401382 -0.12758452 2.40207522 -0.26275849
2.93740565 -0.02843630 2.40207522 -0.28249187
2.94545623 0.07128781 2.40207522 -0.30157818
3.02267395 0.17130028 2.34236415 -0.32005902
3.02006198 0.27187806 2.34236415 -0.33793589
3.01223318 0.37218469 2.34236415 -0.35498208
2.99920865 0.47194977 2.34236415 -0.37114555
2.98102348 0.57090435 2.34236415 -0.38637800
2.95772668 0.66878167 2.34236415 -0.40063504
2.92938110 0.76531790 2.34236415 -0.41387577
2.89606311 0.86025273 2.34236415 -0.42606304
2.85786256 0.95333025 2.34236415 -0.43716306
2.81488244 1.04429959 2.34236415 -0.44714566
2.76723857 1.13291546 2.34236415 -0.45598414
2.71505944 1.21893900 2.34236415 -0.46365536
2.65848571 1.30213828 2.34236415 -0.47013977
2.59766983 1.38228901 2.34236415 -0.47542148
2.53277580 1.45917515 2.34236415 -0.47948827
2.46397855 1.53258941 2.34236415 -0.48233176
2.39146363 1.60233383 2.34236415 -0.48394747
2.31542635 1.66822049 2.34236415 -0.48433485
2.23607186 1.73007170 2.34236415 -0.48349740
2.15361397 1.78772072 2.34236415 -0.48144278
2.06827508 1.84101218 2.34236415 -0.47818293
1.98028516 1.88980241 2.34236415 -0.47373407
1.88988141 1.93395979 2.34236415 -0.46811687
1.79730761 1.97336543 2.34236415 -0.46135652
1.70281332 2.00791297 2.34236415 -0.45348291
1.60665318 2.03750936 2.34236415 -0.44453057
1.50908654 2.06207476 2.34236415 -0.43453899
1.41037635 2.08154297 2.34236415 -0.42355266
1.31078879 2.09586150 2.34236415 -0.41162112
1.21059224 2.10499176 2.34236415 -0.39879925
1.31078879 -1.75326093 2.34236415 0.19357081