ITEM: TIMESTEP
0
ITEM: NUMBER OF ATOMS
6
ITEM: BOX BOUNDS pp pp pp
-2.5000000000000000e+01 2.5000000000000000e+01
-2.5000000000000000e+01 2.5000000000000000e+01
-2.5000000000000000e+01 2.5000000000000000e+01
ITEM: ATOMS element x y z q 
O 1.0849 0.1713 -0 -0.426644 
C -0.3366 0.1504 0 -0.357236 
H -0.7076 1.1754 0 0.187755 
H -0.7006 -0.3636 0.89 0.156191 
H -0.7006 -0.3636 -0.89 0.156191 
H 1.3606 -0.7699 0 0.283743 
