ITEM: TIMESTEP
0
ITEM: NUMBER OF ATOMS
13442
ITEM: BOX BOUNDS pp pp pp
-1.0000000000000000e+01 1.0000000000000000e+01
-1.0000000000000000e+01 1.0000000000000000e+01
-1.0000000000000000e+01 1.0000000000000000e+01
ITEM: ATOMS x y z q
2.53693169 -0.33746652 3.04000502 -0.24734571
2.63242051 -0.33746652 3.03850496 -0.24693356
2.56643934 -0.24665121 3.03850496 -0.23153910
2.45967957 -0.28133957 3.03850496 -0.23737698
2.45967957 -0.39359347 3.03850496 -0.25663029
2.56643934 -0.42828183 3.03850496 -0.26268537
2.72781515 -0.33746652 3.03400627 -0.24570040
2.69751310 -0.23426711 3.03400627 -0.22821153
2.61622754 -0.16383279 3.03400627 -0.21656308
2.50976612 -0.14852594 3.03400627 -0.21406535
2.41192955 -0.19320640 3.03400627 -0.22139429
2.35378030 -0.28368842 3.03400627 -0.23653116
2.35378030 -0.39124461 3.03400627 -0.25500359
2.41192955 -0.48172664 3.03400627 -0.27091182
2.50976612 -0.52640710 3.03400627 -0.27888154
2.61622754 -0.51110026 3.03400627 -0.27614126
2.69751310 -0.44066593 3.03400627 -0.26364904
2.72781515 -0.33746652 3.03400627 -0.24570040
2.82302139 -0.33746652 3.02651339 -0.24364895
2.80370241 -0.23411899 3.02651339 -0.22609537
2.74835457 -0.14472911 3.02651339 -0.21131940
2.66445287 -0.08136948 3.02651339 -0.20109339
2.56332868 -0.05259718 3.02651339 -0.19652172
2.45863948 -0.06229807 3.02651339 -0.19805973
2.36452408 -0.10916198 3.02651339 -0.20555704
2.29369326 -0.18685967 3.02651339 -0.21824033
2.25571317 -0.28489767 3.02651339 -0.23466680
2.25571317 -0.39003537 3.02651339 -0.25276416
2.29369326 -0.48807336 3.02651339 -0.27004766
2.36452408 -0.56577107 3.02651339 -0.28400072
2.45863948 -0.61263499 3.02651339 -0.29251762
2.56332868 -0.62233586 3.02651339 -0.29428871
2.66445287 -0.59356355 3.02651339 -0.28903965
2.74835457 -0.53020392 3.02651339 -0.27758148
2.80370241 -0.44081406 3.02651339 -0.26166269
2.82302139 -0.33746652 3.02651339 -0.24364895
2.91794532 -0.33746652 3.01603368 -0.24078371
2.90381629 -0.23467027 3.01603368 -0.22326691
2.86247715 -0.13949794 3.01603368 -0.20749404
2.79699371 -0.05900804 3.01603368 -0.19451780
2.71222273 0.00082988 3.01603368 -0.18510252
2.61445120 0.03557789 3.01603368 -0.17973079
2.51093037 0.04265891 3.01603368 -0.17864599
2.40933796 0.02154776 3.01603368 -0.18189414
2.31720861 -0.02618983 3.01603368 -0.18933412
2.24137506 -0.09701339 3.01603368 -0.20060898
2.18746161 -0.18567026 3.01603368 -0.21509893
2.15946677 -0.28558517 3.01603368 -0.23189281
2.15946677 -0.38934787 3.01603368 -0.24980915
2.18746161 -0.48926278 3.01603368 -0.26747722
2.24137506 -0.57791965 3.01603368 -0.28346540
2.31720861 -0.64874322 3.01603368 -0.29643010
2.40933796 -0.69648081 3.01603368 -0.30525847
2.51093037 -0.71759195 3.01603368 -0.30918398
2.61445120 -0.71051093 3.01603368 -0.30786408
2.71222273 -0.67576294 3.01603368 -0.30141407
2.79699371 -0.61592499 3.01603368 -0.29039563
2.86247715 -0.53543510 3.01603368 -0.27576093
2.90381629 -0.44026278 3.01603368 -0.25875479
2.91794532 -0.33746652 3.01603368 -0.24078371
3.01249322 -0.33746652 3.00257750 -0.23711107
3.00137489 -0.23523484 3.00257750 -0.21961804
2.96853967 -0.13778340 3.00257750 -0.20340156
2.91552296 -0.04966893 3.00257750 -0.18915958
2.84480369 0.02498846 3.00257750 -0.17743063
2.75968875 0.08269784 3.00257750 -0.16859086
2.66415785 0.12076082 3.00257750 -0.16287425
2.56267806 0.13739759 3.00257750 -0.16040553
2.45999438 0.13183024 3.00257750 -0.16123135
2.36090821 0.10431910 3.00257750 -0.16533656
2.27005270 0.05615055 3.00257750 -0.17263859
2.19167614 -0.01042309 3.00257750 -0.18296236
2.12944333 -0.09228892 3.00257750 -0.19600632
2.08626424 -0.18561899 3.00257750 -0.21131430
2.06415787 -0.28604927 3.00257750 -0.22826601
2.06415787 -0.38888377 3.00257750 -0.24609306
2.08626424 -0.48931405 3.00257750 -0.26391961
2.12944333 -0.58264409 3.00257750 -0.28082057
2.19167614 -0.66450994 3.00257750 -0.29588757
2.27005270 -0.73108358 3.00257750 -0.30829358
2.36090821 -0.77925213 3.00257750 -0.31734981
2.45999438 -0.80676330 3.00257750 -0.32255043
2.56267806 -0.81233062 3.00257750 -0.32360431
2.66415785 -0.79569387 3.00257750 -0.32045236
2.75968875 -0.75763091 3.00257750 -0.31327115
2.84480369 -0.69992152 3.00257750 -0.30246232
2.91552296 -0.62526411 3.00257750 -0.28862811
2.96853967 -0.53714963 3.00257750 -0.27253291
3.00137489 -0.43969820 3.00257750 -0.25505218
3.10657184 -0.33746652 2.98615819 -0.23263923
3.09741745 -0.23575334 2.98615819 -0.21514711
3.07024865 -0.13730932 2.98615819 -0.19868042
3.02593855 -0.04529850 2.98615819 -0.18374054
2.96591141 0.03732178 2.98615819 -0.17072812
2.89209651 0.10789607 2.98615819 -0.15993707
2.80686631 0.16415604 2.98615819 -0.15156189
2.71296014 0.20429344 2.98615819 -0.14571603
2.61339634 0.22701824 2.98615819 -0.14245596
2.51137487 0.23160003 2.98615819 -0.14180404
2.41017480 0.21789155 2.98615819 -0.14376392
2.31304886 0.18633341 2.98615819 -0.14832373
2.22311862 0.13793990 2.98615819 -0.15544651
2.14327464 0.07426645 2.98615819 -0.16505034
2.07608313 -0.00264045 2.98615819 -0.17698396
2.02370366 -0.09030893 2.98615819 -0.19100484
1.98781974 -0.18592125 2.98615819 -0.20676573
1.96958473 -0.28640437 2.98615819 -0.22381399
1.96958473 -0.38852867 2.98615819 -0.24160420
1.98781974 -0.48901178 2.98615819 -0.25952229
2.02370366 -0.58462411 2.98615819 -0.27691723
2.07608313 -0.67229260 2.98615819 -0.29313594
2.14327464 -0.74919948 2.98615819 -0.30755747
2.22311862 -0.81287297 2.98615819 -0.31962389
2.31304886 -0.86126642 2.98615819 -0.32886616
2.41017480 -0.89282458 2.98615819 -0.33492444
2.51137487 -0.90653307 2.98615819 -0.33756288
2.61339634 -0.90195129 2.98615819 -0.33667882
2.71296014 -0.87922647 2.98615819 -0.33230661
2.80686631 -0.83908909 2.98615819 -0.32461645
2.89209651 -0.78282910 2.98615819 -0.31390778
2.96591141 -0.71225483 2.98615819 -0.30059722
3.02593855 -0.62963453 2.98615819 -0.28520127
3.07024865 -0.53762372 2.98615819 -0.26831295
3.09741745 -0.43917969 2.98615819 -0.25057345
3.20008821 -0.33746652 2.96679185 -0.22737831
3.19231629 -0.23623615 2.96679185 -0.20986605
3.16918274 -0.13737853 2.96679185 -0.19322782
3.13122974 -0.04321081 2.96679185 -0.17784566
3.07934690 0.04405982 2.96679185 -0.16403262
3.01475031 0.12238779 2.96679185 -0.15202618
2.93895402 0.18993716 2.96679185 -0.14198956
2.85373472 0.24512463 2.96679185 -0.13402065
2.76108980 0.28665667 2.96679185 -0.12816691
2.66319078 0.31355978 2.96679185 -0.12444326
2.56233240 0.32520339 2.96679185 -0.12284925
2.46087864 0.32131458 2.96679185 -0.12338214
2.36120746 0.30198450 2.96679185 -0.12604298
2.26565513 0.26766623 2.96679185 -0.13083456
2.17646129 0.21916416 2.96679185 -0.13775155
2.09571655 0.15761514 2.96679185 -0.14676502
2.02531358 0.08446182 2.96679185 -0.15780435
1.96690244 0.00141887 2.96679185 -0.17074049
1.92185233 -0.08956728 2.96679185 -0.18537372
1.89121917 -0.18636397 2.96679185 -0.20142840
1.87572095 -0.28670238 2.96679185 -0.21855568
1.87572095 -0.38823066 2.96679185 -0.23634362
1.89121917 -0.48856907 2.96679185 -0.25433309
1.92185233 -0.58536575 2.96679185 -0.27203729
1.96690244 -0.67635192 2.96679185 -0.28896259
2.02531358 -0.75939487 2.96679185 -0.30462883
2.09571655 -0.83254819 2.96679185 -0.31858761
2.17646129 -0.89409719 2.96679185 -0.33043828
2.26565513 -0.94259928 2.96679185 -0.33984066
2.36120746 -0.97691752 2.96679185 -0.34652542
2.46087864 -0.99624762 2.96679185 -0.35030149
2.56233240 -1.00013643 2.96679185 -0.35106111
2.66319078 -0.98849285 2.96679185 -0.34878257
2.76108980 -0.96158970 2.96679185 -0.34353090
2.85373472 -0.92005767 2.96679185 -0.33545607
2.93895402 -0.86487022 2.96679185 -0.32478911
3.01475031 -0.79732083 2.96679185 -0.31183591
3.07934690 -0.71899284 2.96679185 -0.29696839
3.13122974 -0.63172224 2.96679185 -0.28061292
3.16918274 -0.53755451 2.96679185 -0.26323592
3.19231629 -0.43869689 2.96679185 -0.24532677
3.29295020 -0.33746652 2.94449768 -0.22134032
3.28620462 -0.23669912 2.94449768 -0.20378964
3.26608822 -0.13772991 2.94449768 -0.18701367
3.23296000 -0.04232501 2.94449768 -0.17131689
3.18741119 0.04781309 2.94449768 -0.15695384
3.13025452 0.13107587 2.94449768 -0.14412304
3.06251002 0.20597749 2.94449768 -0.13296551
2.98538655 0.27118134 2.94449768 -0.12356844
2.90026038 0.32552386 2.94449768 -0.11597354
2.80865058 0.36803529 2.94449768 -0.11018898
2.71219199 0.39795703 2.94449768 -0.10620304
2.61260585 0.41475512 2.94449768 -0.10399744
2.51166931 0.41812980 2.94449768 -0.10355809
2.41118362 0.40802084 2.94449768 -0.10488184
2.31294186 0.38460864 2.94449768 -0.10797779
2.21869718 0.34831100 2.94449768 -0.11286318
2.13013147 0.29977564 2.94449768 -0.11955455
2.04882507 0.23986867 2.94449768 -0.12805537
1.97622897 0.16965915 2.94449768 -0.13834230
1.91363860 0.09039996 2.94449768 -0.15035217
1.86217090 0.00350547 2.94449768 -0.16397161
1.82274436 -0.08947365 2.94449768 -0.17903096
1.79606251 -0.18687823 2.94449768 -0.19530317
1.78260146 -0.28697005 2.94449768 -0.21250770
1.78260146 -0.38796298 2.94449768 -0.23031864
1.79606251 -0.48805481 2.94449768 -0.24837610
1.82274436 -0.58545937 2.94449768 -0.26629922
1.86217090 -0.67843852 2.94449768 -0.28369979
1.91363860 -0.76533298 2.94449768 -0.30019532
1.97622897 -0.84459221 2.94449768 -0.31542080
2.04882507 -0.91480172 2.94449768 -0.32903895
2.13013147 -0.97470868 2.94449768 -0.34074890
2.21869718 -1.02324406 2.94449768 -0.35029286
2.31294186 -1.05954168 2.94449768 -0.35746171
2.41118362 -1.08295390 2.94449768 -0.36209898
2.51166931 -1.09306283 2.94449768 -0.36410381
2.61260585 -1.08968816 2.94449768 -0.36343262
2.71219199 -1.07289007 2.94449768 -0.36009998
2.80865058 -1.04296834 2.94449768 -0.35417835
2.90026038 -1.00045690 2.94449768 -0.34579671
2.98538655 -0.94611439 2.94449768 -0.33513832
3.06251002 -0.88091053 2.94449768 -0.32243726
3.13025452 -0.80600891 2.94449768 -0.30797369
3.18741119 -0.72274614 2.94449768 -0.29206766
3.23296000 -0.63260803 2.94449768 -0.27507151
3.26608822 -0.53720313 2.94449768 -0.25736041
3.28620462 -0.43823393 2.94449768 -0.23932126
3.38506605 -0.33746652 2.91929763 -0.21453927
3.37911307 -0.23715498 2.91929763 -0.19693413
3.36133770 -0.13825159 2.91929763 -0.18003414
3.33198949 -0.04214475 2.91929763 -0.16409055
3.29148041 0.04981643 2.91929763 -0.14931716
3.24037916 0.13634100 2.91929763 -0.13588481
3.17940300 0.21621435 2.91929763 -0.12391878
3.10940796 0.28831524 2.91929763 -0.11349957
3.03137658 0.35163152 2.91929763 -0.10466717
2.94640435 0.40527438 2.91929763 -0.09742841
2.85568394 0.44849078 2.91929763 -0.09176656
2.76048902 0.48067406 2.91929763 -0.08765214
2.66215582 0.50137245 2.91929763 -0.08505338
2.56206474 0.51029537 2.91929763 -0.08394528
2.46162081 0.50731758 2.91929763 -0.08431592
2.36223412 0.49248087 2.91929763 -0.08616935
2.26529979 0.46599351 2.91929763 -0.08952458
2.17217861 0.42822734 2.91929763 -0.09441094
2.08417774 0.37971251 2.91929763 -0.10086027
2.00253251 0.32113005 2.91929763 -0.10889702
1.92838909 0.25330235 2.91929763 -0.11852741
1.86278829 0.17718154 2.91929763 -0.12972909
1.80665102 0.09383620 2.91929763 -0.14244251
1.76076524 0.00443631 2.91929763 -0.15656510
1.72577510 -0.08976314 2.91929763 -0.17194864
1.70217191 -0.18743980 2.91929763 -0.18840029
1.69028685 -0.28722251 2.91929763 -0.20568666
1.69028685 -0.38771053 2.91929763 -0.22354056
1.70217191 -0.48749324 2.91929763 -0.24166941
1.72577510 -0.58516991 2.91929763 -0.25976461
1.76076524 -0.67936934 2.91929763 -0.27751098
1.80665102 -0.76876924 2.91929763 -0.29459573
1.86278829 -0.85211457 2.91929763 -0.31071648
1.92838909 -0.92823541 2.91929763 -0.32558824
2.00253251 -0.99606309 2.91929763 -0.33894939
2.08417774 -1.05464553 2.91929763 -0.35056625
2.17217861 -1.10316037 2.91929763 -0.36023712
2.26529979 -1.14092657 2.91929763 -0.36779509
2.36223412 -1.16741389 2.91929763 -0.37311051
2.46162081 -1.18225063 2.91929763 -0.37609259
2.56206474 -1.18522842 2.91929763 -0.37669053
2.66215582 -1.17630549 2.91929763 -0.37489416
2.76048902 -1.15560710 2.91929763 -0.37073404
2.85568394 -1.12342383 2.91929763 -0.36428111
2.94640435 -1.08020742 2.91929763 -0.35564584
3.03137658 -1.02656454 2.91929763 -0.34497673
3.10940796 -0.96324830 2.91929763 -0.33245850
3.17940300 -0.89114740 2.91929763 -0.31830922
3.24037916 -0.81127406 2.91929763 -0.30277718
3.29148041 -0.72474944 2.91929763 -0.28613632
3.33198949 -0.63278827 2.91929763 -0.26868114
3.36133770 -0.53668147 2.91929763 -0.25072019
3.37911307 -0.43777806 2.91929763 -0.23256855
3.47634490 -0.33746652 2.89121659 -0.20699118
3.47102292 -0.23761301 2.89121659 -0.18931727
3.45511734 -0.13889089 2.89121659 -0.17229703
3.42880835 -0.04241871 2.89121659 -0.15614368
3.39239399 0.05071047 2.89121659 -0.14104156
3.34628696 0.13944144 2.89121659 -0.12714126
3.29100960 0.22276886 2.89121659 -0.11455666
3.22718821 0.29974858 2.89121659 -0.10336415
3.15554595 0.36950841 2.89121659 -0.09360438
3.07689453 0.43125792 2.89121659 -0.08528653
2.99212514 0.48429748 2.89121659 -0.07839461
2.90219823 0.52802612 2.89121659 -0.07289541
2.80813268 0.56194840 2.89121659 -0.06874713
2.71099436 0.58567993 2.89121659 -0.06590792
2.61188379 0.59895185 2.89121659 -0.06434343
2.51192400 0.60161376 2.89121659 -0.06403260
2.41224759 0.59363552 2.89121659 -0.06497103
2.31398386 0.57510755 2.89121659 -0.06717169
2.21824622 0.54623973 2.89121659 -0.07066285
2.12611941 0.50735918 2.89121659 -0.07548343
2.03864725 0.45890641 2.89121659 -0.08167625
1.95682087 0.40143041 2.89121659 -0.08927990
1.88156741 0.33558241 2.89121659 -0.09832001
1.81373946 0.26210850 2.89121659 -0.10880086
1.75410555 0.18184117 2.89121659 -0.12069818
1.70334139 0.09568987 2.89121659 -0.13395382
1.66202214 0.00463074 2.89121659 -0.14847269
1.63061601 -0.09030449 2.89121659 -0.16412228
1.60947872 -0.18804017 2.89121659 -0.18073463
1.59884988 -0.28746891 2.89121659 -0.19811024
1.59884988 -0.38746413 2.89121659 -0.21602370
1.60947872 -0.48689287 2.89121659 -0.23423026
1.63061601 -0.58462856 2.89121659 -0.25247277
1.66202214 -0.67956376 2.89121659 -0.27048861
1.70334139 -0.77062290 2.89121659 -0.28801614
1.75410555 -0.85677418 2.89121659 -0.30480051
1.81373946 -0.93704155 2.89121659 -0.32059848
1.88156741 -1.01051545 2.89121659 -0.33518279
1.95682087 -1.07636343 2.89121659 -0.34834540
2.03864725 -1.13383946 2.89121659 -0.35990028
2.12611941 -1.18229223 2.89121659 -0.36968557
2.21824622 -1.22117277 2.89121659 -0.37756533
2.31398386 -1.25004059 2.89121659 -0.38343091
2.41224759 -1.26856861 2.89121659 -0.38720173
2.51192400 -1.27654680 2.89121659 -0.38882631
2.61188379 -1.27388488 2.89121659 -0.38828247
2.71099436 -1.26061296 2.89121659 -0.38557764
2.80813268 -1.23688144 2.89121659 -0.38074872
2.90219823 -1.20295918 2.89121659 -0.37386181
2.99212514 -1.15923054 2.89121659 -0.36501170
3.07689453 -1.10619097 2.89121659 -0.35432083
3.15554595 -1.04444146 2.89121659 -0.34193832
3.22718821 -0.97468164 2.89121659 -0.32803840
3.29100960 -0.89770190 2.89121659 -0.31281839
3.34628696 -0.81437451 2.89121659 -0.29649636
3.39239399 -0.72564349 2.89121659 -0.27930804
3.42880835 -0.63251431 2.89121659 -0.26150307
3.45511734 -0.53604217 2.89121659 -0.24334036
3.47102292 -0.43732003 2.89121659 -0.22508282
3.47634490 -0.33746652 2.89121659 -0.20699118
3.56669664 -0.33746652 2.86028228 -0.19871413
3.56173804 -0.23653190 2.86028228 -0.18068540
3.54691002 -0.13656934 2.86028228 -0.16329284
3.52235531 -0.03854153 2.86028228 -0.14672982
3.48831044 0.05660748 2.86028228 -0.13116541
3.44510330 0.14796133 2.86028228 -0.11673980
3.39314997 0.23464025 2.86028228 -0.10356111
3.33295074 0.31580947 2.86028228 -0.09170381
3.26508549 0.39068728 2.86028228 -0.08120922
3.19020768 0.45855257 2.86028228 -0.07208805
3.10903844 0.51875177 2.86028228 -0.06432484
3.02235951 0.57070512 2.86028228 -0.05788416
2.93100567 0.61391226 2.86028228 -0.05271778
2.83585669 0.64795713 2.86028228 -0.04877244
2.73782887 0.67251179 2.86028228 -0.04599739
2.63786628 0.68733986 2.86028228 -0.04435104
2.53693169 0.69229846 2.86028228 -0.04380622
2.43599705 0.68733986 2.86028228 -0.04435347
2.33603451 0.67251179 2.86028228 -0.04600223
2.23800669 0.64795713 2.86028228 -0.04877966
2.14285765 0.61391226 2.86028228 -0.05272732
2.05150382 0.57070512 2.86028228 -0.05789594
1.96482489 0.51875177 2.86028228 -0.06433878
1.88365570 0.45855257 2.86028228 -0.07210401
1.80877789 0.39068728 2.86028228 -0.08122708
1.74091258 0.31580947 2.86028228 -0.09172339
1.68071341 0.23464025 2.86028228 -0.10358224
1.62876003 0.14796133 2.86028228 -0.11676228
1.58555288 0.05660748 2.86028228 -0.13118901
1.55150802 -0.03854153 2.86028228 -0.14675433
1.52695336 -0.13656934 2.86028228 -0.16331801
1.51212529 -0.23653190 2.86028228 -0.18071099
1.50716669 -0.33746652 2.86028228 -0.19873988
1.51212529 -0.43840114 2.86028228 -0.21719241
1.52695336 -0.53836372 2.86028228 -0.23584322
1.55150802 -0.63639154 2.86028228 -0.25445964
1.58555288 -0.73154053 2.86028228 -0.27280717
1.62876003 -0.82289437 2.86028228 -0.29065435
1.68071341 -0.90957329 2.86028228 -0.30777709
1.74091258 -0.99074248 2.86028228 -0.32396214
1.80877789 -1.06562034 2.86028228 -0.33901015
1.88365570 -1.13348560 2.86028228 -0.35273788
1.96482489 -1.19368483 2.86028228 -0.36498014
2.05150382 -1.24563815 2.86028228 -0.37559128
2.14285765 -1.28884530 2.86028228 -0.38444631
2.23800669 -1.32289016 2.86028228 -0.39144177
2.33603451 -1.34744488 2.86028228 -0.39649654
2.43599705 -1.36227289 2.86028228 -0.39955234
2.53693169 -1.36723149 2.86028228 -0.40057397
2.63786628 -1.36227289 2.86028228 -0.39954978
2.73782887 -1.34744488 2.86028228 -0.39649145
2.83585669 -1.32289016 2.86028228 -0.39143418
2.93100567 -1.28884530 2.86028228 -0.38443630
3.02235951 -1.24563815 2.86028228 -0.37557898
3.10903844 -1.19368483 2.86028228 -0.36496566
3.19020768 -1.13348560 2.86028228 -0.35272134
3.26508549 -1.06562034 2.86028228 -0.33899175
3.33295074 -0.99074248 2.86028228 -0.32394206
3.39314997 -0.90957329 2.86028228 -0.30775551
3.44510330 -0.82289437 2.86028228 -0.29063149
3.48831044 -0.73154053 2.86028228 -0.27278325
3.52235531 -0.63639154 2.86028228 -0.25443491
3.54691002 -0.53836372 2.86028228 -0.23581790
3.56173804 -0.43840114 2.86028228 -0.21716675
3.56669664 -0.33746652 2.86028228 -0.19871413
3.65603214 -0.33746652 2.82652518 -0.18972833
3.65152699 -0.23715113 2.82652518 -0.17162783
3.63804774 -0.13764341 2.82652518 -0.15412800
3.61570298 -0.03974456 2.82652518 -0.13739929
3.58467257 0.05575722 2.82652518 -0.12159283
3.54520639 0.14809298 2.82652518 -0.10683650
3.49762216 0.23651931 2.82652518 -0.09323178
3.44230300 0.32032424 2.82652518 -0.08085177
3.37969432 0.39883303 2.82652518 -0.06974066
3.31030022 0.47141357 2.82652518 -0.05991471
3.23467940 0.53748148 2.82652518 -0.05136491
3.15344073 0.59650482 2.82652518 -0.04406103
3.06723832 0.64800835 2.82652518 -0.03795685
2.97676615 0.69157745 2.82652518 -0.03299632
2.88275272 0.72686128 2.82652518 -0.02911991
2.78595498 0.75357578 2.82652518 -0.02627096
2.68715218 0.77150583 2.82652518 -0.02440140
2.58713995 0.78050713 2.82652518 -0.02347636
2.48672343 0.78050713 2.82652518 -0.02347756
2.38671114 0.77150583 2.82652518 -0.02440500
2.28790840 0.75357578 2.82652518 -0.02627695
2.19111060 0.72686128 2.82652518 -0.02912824
2.09709718 0.69157745 2.82652518 -0.03300694
2.00662500 0.64800835 2.82652518 -0.03796969
1.92042260 0.59650482 2.82652518 -0.04407601
1.83918393 0.53748148 2.82652518 -0.05138193
1.76356310 0.47141357 2.82652518 -0.05993364
1.69416900 0.39883303 2.82652518 -0.06976136
1.63156038 0.32032424 2.82652518 -0.08087409
1.57624122 0.23651931 2.82652518 -0.09325553
1.52865699 0.14809298 2.82652518 -0.10686149
1.48919076 0.05575722 2.82652518 -0.12161886
1.45816035 -0.03974456 2.82652518 -0.13742615
1.43581558 -0.13764341 2.82652518 -0.15415546
1.42233633 -0.23715113 2.82652518 -0.17165567
1.41783119 -0.33746652 2.82652518 -0.18975632
1.42233633 -0.43778191 2.82652518 -0.20827220
1.43581558 -0.53728960 2.82652518 -0.22700791
1.45816035 -0.63518851 2.82652518 -0.24576245
1.48919076 -0.73069025 2.82652518 -0.26433341
1.52865699 -0.82302602 2.82652518 -0.28252074
1.57624122 -0.91145235 2.82652518 -0.30012996
1.63156038 -0.99525726 2.82652518 -0.31697479
1.69416900 -1.07376607 2.82652518 -0.33287948
1.76356310 -1.14634661 2.82652518 -0.34768033
1.83918393 -1.21241452 2.82652518 -0.36122728
1.92042260 -1.27143786 2.82652518 -0.37338472
2.00662500 -1.32294139 2.82652518 -0.38403257
2.09709718 -1.36651049 2.82652518 -0.39306679
2.19111060 -1.40179432 2.82652518 -0.40039988
2.28790840 -1.42850881 2.82652518 -0.40596143
2.38671114 -1.44643886 2.82652518 -0.40969831
2.48672343 -1.45544017 2.82652518 -0.41157503
2.58713995 -1.45544017 2.82652518 -0.41157375
2.68715218 -1.44643886 2.82652518 -0.40969448
2.78595498 -1.42850881 2.82652518 -0.40595509
2.88275272 -1.40179432 2.82652518 -0.40039106
2.97676615 -1.36651049 2.82652518 -0.39305560
3.06723832 -1.32294139 2.82652518 -0.38401913
3.15344073 -1.27143786 2.82652518 -0.37336910
3.23467940 -1.21241452 2.82652518 -0.36120962
3.31030022 -1.14634661 2.82652518 -0.34766080
3.37969432 -1.07376607 2.82652518 -0.33285820
3.44230300 -0.99525726 2.82652518 -0.31695196
3.49762216 -0.91145235 2.82652518 -0.30010577
3.54520639 -0.82302602 2.82652518 -0.28249538
3.58467257 -0.73069025 2.82652518 -0.26430710
3.61570298 -0.63518851 2.82652518 -0.24573538
3.63804774 -0.53728960 2.82652518 -0.22698031
3.65152699 -0.43778191 2.82652518 -0.20824429
3.74426325 -0.33746652 2.78997868 -0.18005620
3.74002899 -0.23643962 2.78997868 -0.16163033
3.72735583 -0.13612134 2.78997868 -0.14379305
3.70633269 -0.03721537 2.78997868 -0.12670288
3.67710709 0.05958457 2.78997868 -0.11050193
3.63988393 0.15359948 2.78997868 -0.09531221
3.59492442 0.24416990 2.78997868 -0.08123244
3.54254378 0.33066058 2.78997868 -0.06833591
3.48310953 0.41246481 2.78997868 -0.05666926
3.41703850 0.48900882 2.78997868 -0.04625272
3.34479420 0.55975570 2.78997868 -0.03708159
3.26688326 0.62420920 2.78997868 -0.02912916
3.18385226 0.68191727 2.78997868 -0.02235075
3.09628363 0.73247506 2.78997868 -0.01668872
3.00479147 0.77552800 2.78997868 -0.01207803
2.91001767 0.81077404 2.78997868 -0.00845212
2.81262687 0.83796601 2.78997868 -0.00574854
2.71330231 0.85691320 2.78997868 -0.00391405
2.61274063 0.86748266 2.78997868 -0.00290893
2.51164724 0.86960027 2.78997868 -0.00271005
2.41073118 0.86325115 2.78997868 -0.00331270
2.31070027 0.84847991 2.78997868 -0.00473091
2.21225625 0.82539007 2.78997868 -0.00699642
2.11608960 0.79414365 2.78997868 -0.01015615
2.02287486 0.75495973 2.78997868 -0.01426854
1.93326588 0.70811328 2.78997868 -0.01939875
1.84789116 0.65393286 2.78997868 -0.02561330
1.76734958 0.59279847 2.78997868 -0.03297422
1.69220602 0.52513891 2.78997868 -0.04153334
1.62298761 0.45142881 2.78997868 -0.05132691
1.56017990 0.37218518 2.78997868 -0.06237105
1.50422341 0.28796385 2.78997868 -0.07465826
1.45551060 0.19935558 2.78997868 -0.08815519
1.41438317 0.10698188 2.78997868 -0.10280182
1.38112959 0.01149070 2.78997868 -0.11851190
1.35598320 -0.08644817 2.78997868 -0.13517472
1.33912023 -0.18614775 2.78997868 -0.15265779
1.33065912 -0.28690872 2.78997868 -0.17081030
1.33065912 -0.38802432 2.78997868 -0.18946702
1.33912023 -0.48878529 2.78997868 -0.20845238
1.35598320 -0.58848488 2.78997868 -0.22758446
1.38112959 -0.68642374 2.78997868 -0.24667874
1.41438317 -0.78191490 2.78997868 -0.26555141
1.45551060 -0.87428862 2.78997868 -0.28402235
1.50422341 -0.96289687 2.78997868 -0.30191742
1.56017990 -1.04711820 2.78997868 -0.31907050
1.62298761 -1.12636187 2.78997868 -0.33532502
1.69220602 -1.20007194 2.78997868 -0.35053512
1.76734958 -1.26773151 2.78997868 -0.36456653
1.84789116 -1.32886590 2.78997868 -0.37729736
1.93326588 -1.38304632 2.78997868 -0.38861855
2.02287486 -1.42989277 2.78997868 -0.39843440
2.11608960 -1.46907669 2.78997868 -0.40666276
2.21225625 -1.50032311 2.78997868 -0.41323536
2.31070027 -1.52341295 2.78997868 -0.41809813
2.41073118 -1.53818424 2.78997868 -0.42121121
2.51164724 -1.54453330 2.78997868 -0.42254917
2.61274063 -1.54241570 2.78997868 -0.42210117
2.71330231 -1.53184623 2.78997868 -0.41987079
2.81262687 -1.51289905 2.78997868 -0.41587630
2.91001767 -1.48570708 2.78997868 -0.41015026
3.00479147 -1.45046103 2.78997868 -0.40273973
3.09628363 -1.40740809 2.78997868 -0.39370592
3.18385226 -1.35685031 2.78997868 -0.38312405
3.26688326 -1.29914224 2.78997868 -0.37108316
3.34479420 -1.23468874 2.78997868 -0.35768566
3.41703850 -1.16394185 2.78997868 -0.34304709
3.48310953 -1.08739783 2.78997868 -0.32729562
3.54254378 -1.00559362 2.78997868 -0.31057142
3.59492442 -0.91910292 2.78997868 -0.29302584
3.63988393 -0.82853253 2.78997868 -0.27482043
3.67710709 -0.73451763 2.78997868 -0.25612553
3.70633269 -0.63771766 2.78997868 -0.23711853
3.72735583 -0.53881167 2.78997868 -0.21798176
3.74002899 -0.43849342 2.78997868 -0.19889976
3.83130286 -0.33746652 2.75067877 -0.16972240
3.82741061 -0.23716256 2.75067877 -0.15121348
3.81575728 -0.13746185 2.75067877 -0.13326554
3.79641290 -0.03896398 2.75067877 -0.11602211
3.76949388 0.05773866 2.75067877 -0.09961347
3.73516209 0.15206448 2.75067877 -0.08415348
3.69362403 0.24344621 2.75067877 -0.06973664
3.64512945 0.33133426 2.75067877 -0.05643579
3.58997005 0.41520006 2.75067877 -0.04430064
3.52847752 0.49453924 2.75067877 -0.03335727
3.46102174 0.56887464 2.75067877 -0.02360863
3.38800838 0.63775920 2.75067877 -0.01503624
3.30987656 0.70077862 2.75067877 -0.00760289
3.22709613 0.75755392 2.75067877 -0.00125629
3.14016495 0.80774366 2.75067877 0.00406659
3.04960588 0.85104595 2.75067877 0.00843472
2.95596357 0.88720038 2.75067877 0.01191802
2.85980110 0.91598956 2.75067877 0.01458254
2.76169687 0.93724025 2.75067877 0.01648597
2.66224086 0.95082476 2.75067877 0.01767387
2.56203124 0.95666126 2.75067877 0.01817670
2.46167071 0.95471479 2.75067877 0.01800788
2.36176272 0.94499698 2.75067877 0.01716291
2.26290828 0.92756626 2.75067877 0.01561969
2.16570185 0.90252751 2.75067877 0.01333991
2.07072802 0.87003128 2.75067877 0.01027153
1.97855798 0.83027300 2.75067877 0.00635217
1.88974610 0.78349179 2.75067877 0.00151327
1.80482642 0.72996903 2.75067877 -0.00431523
1.72430976 0.67002661 2.75067877 -0.01119992
1.64868026 0.60402496 2.75067877 -0.01919904
1.57839285 0.53236111 2.75067877 -0.02835781
1.51387020 0.45546597 2.75067877 -0.03870447
1.45550033 0.37380207 2.75067877 -0.05024704
1.40363432 0.28786051 2.75067877 -0.06297113
1.35858411 0.19815816 2.75067877 -0.07683886
1.32062063 0.10523450 2.75067877 -0.09178878
1.28997218 0.00964838 2.75067877 -0.10773700
1.26682307 -0.08802532 2.75067877 -0.12457899
1.25131257 -0.18719919 2.75067877 -0.14219229
1.24353393 -0.28727679 2.75067877 -0.16043957
1.24353393 -0.38765624 2.75067877 -0.17917200
1.25131257 -0.48773384 2.75067877 -0.19823266
1.26682307 -0.58690772 2.75067877 -0.21745980
1.28997218 -0.68458142 2.75067877 -0.23668991
1.32062063 -0.78016756 2.75067877 -0.25576037
1.35858411 -0.87309120 2.75067877 -0.27451172
1.40363432 -0.96279352 2.75067877 -0.29278963
1.45550033 -1.04873510 2.75067877 -0.31044627
1.51387020 -1.13039901 2.75067877 -0.32734166
1.57839285 -1.20729415 2.75067877 -0.34334437
1.64868026 -1.27895800 2.75067877 -0.35833241
1.72430976 -1.34495965 2.75067877 -0.37219347
1.80482642 -1.40490207 2.75067877 -0.38482547
1.88974610 -1.45842483 2.75067877 -0.39613673
1.97855798 -1.50520603 2.75067877 -0.40604630
2.07072802 -1.54496432 2.75067877 -0.41448394
2.16570185 -1.57746055 2.75067877 -0.42139047
2.26290828 -1.60249930 2.75067877 -0.42671779
2.36176272 -1.61993002 2.75067877 -0.43042901
2.46167071 -1.62964783 2.75067877 -0.43249855
2.56203124 -1.63159430 2.75067877 -0.43291213
2.66224086 -1.62575779 2.75067877 -0.43166695
2.76169687 -1.61217329 2.75067877 -0.42877156
2.85980110 -1.59092260 2.75067877 -0.42424588
2.95596357 -1.56213341 2.75067877 -0.41812121
3.04960588 -1.52597898 2.75067877 -0.41044003
3.14016495 -1.48267669 2.75067877 -0.40125607
3.22709613 -1.43248695 2.75067877 -0.39063401
3.30987656 -1.37571166 2.75067877 -0.37864950
3.38800838 -1.31269224 2.75067877 -0.36538893
3.46102174 -1.24380768 2.75067877 -0.35094916
3.52847752 -1.16947228 2.75067877 -0.33543745
3.58997005 -1.09013309 2.75067877 -0.31897104
3.64512945 -1.00626732 2.75067877 -0.30167668
3.69362403 -0.91837922 2.75067877 -0.28369021
3.73516209 -0.82699750 2.75067877 -0.26515564
3.76949388 -0.73267170 2.75067877 -0.24622424
3.79641290 -0.63596905 2.75067877 -0.22705312
3.81575728 -0.53747121 2.75067877 -0.20780359
3.82741061 -0.43777048 2.75067877 -0.18863902
3.91706505 -0.33746652 2.70866434 -0.15875393
3.91338324 -0.23672325 2.70866434 -0.13993443
3.90235752 -0.13651748 2.70866434 -0.12166575
3.88404657 -0.03738387 2.70866434 -0.10408377
3.85854823 0.06014867 2.70866434 -0.08731315
3.82599850 0.15555976 2.70866434 -0.07146423
3.78657100 0.24834035 2.70866434 -0.05663030
3.74047619 0.33799540 2.70866434 -0.04288520
3.68795993 0.42404657 2.70866434 -0.03028159
3.62930240 0.50603474 2.70866434 -0.01885003
3.56481663 0.58352247 2.70866434 -0.00859893
3.49484662 0.65609629 2.70866434 0.00048454
3.41976577 0.72336908 2.70866434 0.00843249
3.33997461 0.78498180 2.70866434 0.01529356
3.25589881 0.84060581 2.70866434 0.02112933
3.16798706 0.88994427 2.70866434 0.02601024
3.07670837 0.93273399 2.70866434 0.03001109
2.98254968 0.96874661 2.70866434 0.03320652
2.88601346 0.99779006 2.70866434 0.03566657
2.78761474 1.01970931 2.70866434 0.03745265
2.68787853 1.03438741 2.70866434 0.03861410
2.58733691 1.04174615 2.70866434 0.03918536
2.48652642 1.04174615 2.70866434 0.03918417
2.38598480 1.03438741 2.70866434 0.03861052
2.28624858 1.01970931 2.70866434 0.03744671
2.18784987 0.99779006 2.70866434 0.03565827
2.09131364 0.96874661 2.70866434 0.03319590
1.99715501 0.93273399 2.70866434 0.02999818
1.90587626 0.88994427 2.70866434 0.02599508
1.81796451 0.84060581 2.70866434 0.02111199
1.73388876 0.78498180 2.70866434 0.01527410
1.65409755 0.72336908 2.70866434 0.00841100
1.57901670 0.65609629 2.70866434 0.00046112
1.50904670 0.58352247 2.70866434 -0.00862416
1.44456092 0.50603474 2.70866434 -0.01887695
1.38590345 0.42404657 2.70866434 -0.03031005
1.33338713 0.33799540 2.70866434 -0.04291505