ITEM: TIMESTEP
0
ITEM: NUMBER OF ATOMS
13442
ITEM: BOX BOUNDS pp pp pp
-1.0000000000000000e+01 1.0000000000000000e+01
-1.0000000000000000e+01 1.0000000000000000e+01
-1.0000000000000000e+01 1.0000000000000000e+01
ITEM: ATOMS x y z q
2.53693169 -0.33746652 3.04000502 -0.19540232
2.63242051 -0.33746652 3.03850496 -0.19508427
2.56643934 -0.24665121 3.03850496 -0.17370877
2.45967957 -0.28133957 3.03850496 -0.18184616
2.45967957 -0.39359347 3.03850496 -0.20841948
2.56643934 -0.42828183 3.03850496 -0.21669791
2.72781515 -0.33746652 3.03400627 -0.19413481
2.69751310 -0.23426711 3.03400627 -0.16983538
2.61622754 -0.16383279 3.03400627 -0.15345424
2.50976612 -0.14852594 3.03400627 -0.14991998
2.41192955 -0.19320640 3.03400627 -0.16026936
2.35378030 -0.28368842 3.03400627 -0.18143845
2.35378030 -0.39124461 3.03400627 -0.20692920
2.41192955 -0.48172664 3.03400627 -0.22860707
2.50976612 -0.52640710 3.03400627 -0.23937831
2.61622754 -0.51110026 3.03400627 -0.23568067
2.69751310 -0.44066593 3.03400627 -0.21873900
2.72781515 -0.33746652 3.03400627 -0.19413481
2.82302139 -0.33746652 3.02651339 -0.19255598
2.80370241 -0.23411899 3.02651339 -0.16817439
2.74835457 -0.14472911 3.02651339 -0.14737345
2.66445287 -0.08136948 3.02651339 -0.13281346
2.56332868 -0.05259718 3.02651339 -0.12625739
2.45863948 -0.06229807 3.02651339 -0.12846684
2.36452408 -0.10916198 3.02651339 -0.13918750
2.29369326 -0.18685967 3.02651339 -0.15715160
2.25571317 -0.28489767 3.02651339 -0.18012444
2.25571317 -0.39003537 3.02651339 -0.20508979
2.29369326 -0.48807336 3.02651339 -0.22862783
2.36452408 -0.56577107 3.02651339 -0.24743030
2.45863948 -0.61263499 3.02651339 -0.25882441
2.56332868 -0.62233586 3.02651339 -0.26118583
2.66445287 -0.59356355 3.02651339 -0.25417793
2.74835457 -0.53020392 3.02651339 -0.23879976
2.80370241 -0.44081406 3.02651339 -0.21724191
2.82302139 -0.33746652 3.02651339 -0.19255598
2.91794532 -0.33746652 3.01603368 -0.19035123
2.90381629 -0.23467027 3.01603368 -0.16603288
2.86247715 -0.13949794 3.01603368 -0.14383233
2.79699371 -0.05900804 3.01603368 -0.12532723
2.71222273 0.00082988 3.01603368 -0.11174936
2.61445120 0.03557789 3.01603368 -0.10394104
2.51093037 0.04265891 3.01603368 -0.10235871
2.40933796 0.02154776 3.01603368 -0.10709210
2.31720861 -0.02618983 3.01603368 -0.11786984
2.24137506 -0.09701339 3.01603368 -0.13404448
2.18746161 -0.18567026 3.01603368 -0.15457687
2.15946677 -0.28558517 3.01603368 -0.17805285
2.15946677 -0.38934787 3.01603368 -0.20275758
2.18746161 -0.48926278 3.01603368 -0.22680920
2.24137506 -0.57791965 3.01603368 -0.24832981
2.31720861 -0.64874322 3.01603368 -0.26562142
2.40933796 -0.69648081 3.01603368 -0.27731822
2.51093037 -0.71759195 3.01603368 -0.28249927
2.61445120 -0.71051093 3.01603368 -0.28075800
2.71222273 -0.67576294 3.01603368 -0.27223094
2.79699371 -0.61592499 3.01603368 -0.25758814
2.86247715 -0.53543510 3.01603368 -0.23798463
2.90381629 -0.44026278 3.01603368 -0.21496928
2.91794532 -0.33746652 3.01603368 -0.19035123
3.01249322 -0.33746652 3.00257750 -0.18752537
3.00137489 -0.23523484 3.00257750 -0.16325555
2.96853967 -0.13778340 3.00257750 -0.14044386
2.91552296 -0.04966893 3.00257750 -0.12013099
2.84480369 0.02498846 3.00257750 -0.10318262
2.75968875 0.08269784 3.00257750 -0.09026314
2.66415785 0.12076082 3.00257750 -0.08183527
2.56267806 0.13739759 3.00257750 -0.07817698
2.45999438 0.13183024 3.00257750 -0.07940245
2.36090821 0.10431910 3.00257750 -0.08547384
2.27005270 0.05615055 3.00257750 -0.09619716
2.19167614 -0.01042309 3.00257750 -0.11120459
2.12944333 -0.09228892 3.00257750 -0.12993373
2.08626424 -0.18561899 3.00257750 -0.15161786
2.06415787 -0.28604927 3.00257750 -0.17529871
2.06415787 -0.38888377 3.00257750 -0.19986628
2.08626424 -0.48931405 3.00257750 -0.22412188
2.12944333 -0.58264409 3.00257750 -0.24685450
2.19167614 -0.66450994 3.00257750 -0.26691872
2.27005270 -0.73108358 3.00257750 -0.28330425
2.36090821 -0.77925213 3.00257750 -0.29519124
2.45999438 -0.80676330 3.00257750 -0.30198975
2.56267806 -0.81233062 3.00257750 -0.30336466
2.66415785 -0.79569387 3.00257750 -0.29924844
2.75968875 -0.75763091 3.00257750 -0.28984351
2.84480369 -0.69992152 3.00257750 -0.27561486
2.91552296 -0.62526411 3.00257750 -0.25727150
2.96853967 -0.53714963 3.00257750 -0.23573459
3.00137489 -0.43969820 3.00257750 -0.21208998
3.10657184 -0.33746652 2.98615819 -0.18408464
3.09741745 -0.23575334 2.98615819 -0.15983496
3.07024865 -0.13730932 2.98615819 -0.13669038
3.02593855 -0.04529850 2.98615819 -0.11539323
2.96591141 0.03732178 2.98615819 -0.09658227
2.89209651 0.10789607 2.98615819 -0.08077424
2.80686631 0.16415604 2.98615819 -0.06835970
2.71296014 0.20429344 2.98615819 -0.05961150
2.61339634 0.22701824 2.98615819 -0.05470115
2.51137487 0.23160003 2.98615819 -0.05371663
2.41017480 0.21789155 2.98615819 -0.05667477
2.31304886 0.18633341 2.98615819 -0.06352405
2.22311862 0.13793990 2.98615819 -0.07413660
2.14327464 0.07426645 2.98615819 -0.08829241
2.07608313 -0.00264045 2.98615819 -0.10566137
2.02370366 -0.09030893 2.98615819 -0.12579007
1.98781974 -0.18592125 2.98615819 -0.14809928
1.96958473 -0.28640437 2.98615819 -0.17189526
1.96958473 -0.38852867 2.98615819 -0.19639477
1.98781974 -0.48901178 2.98615819 -0.22076050
2.02370366 -0.58462411 2.98615819 -0.24414213
2.07608313 -0.67229260 2.98615819 -0.26571749
2.14327464 -0.74919948 2.98615819 -0.28472974
2.22311862 -0.81287297 2.98615819 -0.30051786
2.31304886 -0.86126642 2.98615819 -0.31253949
2.41017480 -0.89282458 2.98615819 -0.32038676
2.51137487 -0.90653307 2.98615819 -0.32379610
2.61339634 -0.90195129 2.98615819 -0.32265371
2.71296014 -0.87922647 2.98615819 -0.31699765
2.80686631 -0.83908909 2.98615819 -0.30701719
2.89209651 -0.78282910 2.98615819 -0.29304908
2.96591141 -0.71225483 2.98615819 -0.27557014
3.02593855 -0.62963453 2.98615819 -0.25518453
3.07024865 -0.53762372 2.98615819 -0.23260461
3.09741745 -0.43917969 2.98615819 -0.20862422
3.20008821 -0.33746652 2.96679185 -0.18003675
3.19231629 -0.23623615 2.96679185 -0.15578151
3.16918274 -0.13737853 2.96679185 -0.13241967
3.13122974 -0.04321081 2.96679185 -0.11051221
3.07934690 0.04405982 2.96679185 -0.09055244
3.01475031 0.12238779 2.96679185 -0.07295228
2.93895402 0.18993716 2.96679185 -0.05803654
2.85373472 0.24512463 2.96679185 -0.04604555
2.76108980 0.28665667 2.96679185 -0.03714479
2.66319078 0.31355978 2.96679185 -0.03143871
2.56233240 0.32520339 2.96679185 -0.02898512
2.46087864 0.32131458 2.96679185 -0.02980650
2.36120746 0.30198450 2.96679185 -0.03389545
2.26565513 0.26766623 2.96679185 -0.04121281
2.17646129 0.21916416 2.96679185 -0.05167903
2.09571655 0.15761514 2.96679185 -0.06516091
2.02531358 0.08446182 2.96679185 -0.08145700
1.96690244 0.00141887 2.96679185 -0.10028547
1.92185233 -0.08956728 2.96679185 -0.12127773
1.89121917 -0.18636397 2.96679185 -0.14397987
1.87572095 -0.28670238 2.96679185 -0.16786257
1.87572095 -0.38823066 2.96679185 -0.19233826
1.89121917 -0.48856907 2.96679185 -0.21678364
1.92185233 -0.58536575 2.96679185 -0.24056448
1.96690244 -0.67635192 2.96679185 -0.26306032
2.02531358 -0.75939487 2.96679185 -0.28368661
2.09571655 -0.83254819 2.96679185 -0.30191334
2.17646129 -0.89409719 2.96679185 -0.31727918
2.26565513 -0.94259928 2.96679185 -0.32940168
2.36120746 -0.97691752 2.96679185 -0.33798390
2.46087864 -0.99624762 2.96679185 -0.34281842
2.56233240 -1.00013643 2.96679185 -0.34378946
2.66319078 -0.98849285 2.96679185 -0.34087387
2.76108980 -0.96158970 2.96679185 -0.33414126
2.85373472 -0.92005767 2.96679185 -0.32375349
2.93895402 -0.86487022 2.96679185 -0.30996321
3.01475031 -0.79732083 2.96679185 -0.29311081
3.07934690 -0.71899284 2.96679185 -0.27361930
3.13122974 -0.63172224 2.96679185 -0.25198595
3.16918274 -0.53755451 2.96679185 -0.22877011
3.19231629 -0.43869689 2.96679185 -0.20457693
3.29295020 -0.33746652 2.94449768 -0.17539085
3.28620462 -0.23669912 2.94449768 -0.15110838
3.26608822 -0.13772991 2.94449768 -0.12758151
3.23296000 -0.04232501 2.94449768 -0.10525310
3.18741119 0.04781309 2.94449768 -0.08451893
3.13025452 0.13107587 2.94449768 -0.06571692
3.06251002 0.20597749 2.94449768 -0.04912125
2.98538655 0.27118134 2.94449768 -0.03494174
2.90026038 0.32552386 2.94449768 -0.02332856
2.80865058 0.36803529 2.94449768 -0.01438110
2.71219199 0.39795703 2.94449768 -0.00815933
2.61260585 0.41475512 2.94449768 -0.00469546
2.51166931 0.41812980 2.94449768 -0.00400381
2.41118362 0.40802084 2.94449768 -0.00608689
2.31294186 0.38460864 2.94449768 -0.01093669
2.21869718 0.34831100 2.94449768 -0.01853088
2.13013147 0.29977564 2.94449768 -0.02882469
2.04882507 0.23986867 2.94449768 -0.04173986
1.97622897 0.16965915 2.94449768 -0.05715287
1.91363860 0.09039996 2.94449768 -0.07488452
1.86217090 0.00350547 2.94449768 -0.09469307
1.82274436 -0.08947365 2.94449768 -0.11627199
1.79606251 -0.18687823 2.94449768 -0.13925335
1.78260146 -0.28697005 2.94449768 -0.16321624
1.78260146 -0.38796298 2.94449768 -0.18769938
1.79606251 -0.48805481 2.94449768 -0.21221654
1.82274436 -0.58545937 2.94449768 -0.23627295
1.86217090 -0.67843852 2.94449768 -0.25938139
1.91363860 -0.76533298 2.94449768 -0.28107666
1.97622897 -0.84459221 2.94449768 -0.30092766
2.04882507 -0.91480172 2.94449768 -0.31854690
2.13013147 -0.97470868 2.94449768 -0.33359735
2.21869718 -1.02324406 2.94449768 -0.34579702
2.31294186 -1.05954168 2.94449768 -0.35492169
2.41118362 -1.08295390 2.94449768 -0.36080639
2.51166931 -1.09306283 2.94449768 -0.36334600
2.61260585 -1.08968816 2.94449768 -0.36249548
2.71219199 -1.07289007 2.94449768 -0.35826989
2.80865058 -1.04296834 2.94449768 -0.35074437
2.90026038 -1.00045690 2.94449768 -0.34005409
2.98538655 -0.94611439 2.94449768 -0.32639381
3.06251002 -0.88091053 2.94449768 -0.31001696
3.13025452 -0.80600891 2.94449768 -0.29123355
3.18741119 -0.72274614 2.94449768 -0.27040660
3.23296000 -0.63260803 2.94449768 -0.24794645
3.26608822 -0.53720313 2.94449768 -0.22430265
3.28620462 -0.43823393 2.94449768 -0.19995314
3.38506605 -0.33746652 2.91929763 -0.17015766
3.37911307 -0.23715498 2.91929763 -0.14582965
3.36133770 -0.13825159 2.91929763 -0.12216163
3.33198949 -0.04214475 2.91929763 -0.09951541
3.29148041 0.04981643 2.91929763 -0.07821850
3.24037916 0.13634100 2.91929763 -0.05855552
3.17940300 0.21621435 2.91929763 -0.04076259
3.10940796 0.28831524 2.91929763 -0.02502515
3.03137658 0.35163152 2.91929763 -0.01147954
2.94640435 0.40527438 2.91929763 -0.00021807
2.85568394 0.44849078 2.91929763 0.00870317
2.76048902 0.48067406 2.91929763 0.01525499
2.66215582 0.50137245 2.91929763 0.01942549
2.56206474 0.51029537 2.91929763 0.02121165
2.46162081 0.50731758 2.91929763 0.02061335
2.36223412 0.49248087 2.91929763 0.01763060
2.26529979 0.46599351 2.91929763 0.01226446
2.17217861 0.42822734 2.91929763 0.00452153
2.08417774 0.37971251 2.91929763 -0.00557872
2.00253251 0.32113005 2.91929763 -0.01799484
1.92838909 0.25330235 2.91929763 -0.03265366
1.86278829 0.17718154 2.91929763 -0.04944165
1.80665102 0.09383620 2.91929763 -0.06819829
1.76076524 0.00443631 2.91929763 -0.08871274
1.72577510 -0.08976314 2.91929763 -0.11072410
1.70217191 -0.18743980 2.91929763 -0.13392539
1.69028685 -0.28722251 2.91929763 -0.15797072
1.69028685 -0.38771053 2.91929763 -0.18248503
1.70217191 -0.48749324 2.91929763 -0.20707515
1.72577510 -0.58516991 2.91929763 -0.23134148
1.76076524 -0.67936934 2.91929763 -0.25488913
1.80665102 -0.76876924 2.91929763 -0.27733792
1.86278829 -0.85211457 2.91929763 -0.29833081
1.92838909 -0.92823541 2.91929763 -0.31754059
2.00253251 -0.99606309 2.91929763 -0.33467465
2.08417774 -1.05464553 2.91929763 -0.34947834
2.17217861 -1.10316037 2.91929763 -0.36173689
2.26529979 -1.14092657 2.91929763 -0.37127637
2.36223412 -1.16741389 2.91929763 -0.37796401
2.46162081 -1.18225063 2.91929763 -0.38170811
2.56206474 -1.18522842 2.91929763 -0.38245784
2.66215582 -1.17630549 2.91929763 -0.38020306
2.76048902 -1.15560710 2.91929763 -0.37497429
2.85568394 -1.12342383 2.91929763 -0.36684283
2.94640435 -1.08020742 2.91929763 -0.35592091
3.03137658 -1.02656454 2.91929763 -0.34236197
3.10940796 -0.96324830 2.91929763 -0.32636046
3.17940300 -0.89114740 2.91929763 -0.30815131
3.24037916 -0.81127406 2.91929763 -0.28800851
3.29148041 -0.72474944 2.91929763 -0.26624251
3.33198949 -0.63278827 2.91929763 -0.24319621
3.36133770 -0.53668147 2.91929763 -0.21923918
3.37911307 -0.43777806 2.91929763 -0.19476012
3.47634490 -0.33746652 2.89121659 -0.16434944
3.47102292 -0.23761301 2.89121659 -0.13996018
3.45511734 -0.13889089 2.89121659 -0.11616108
3.42880835 -0.04241871 2.89121659 -0.09325590
3.39239399 0.05071047 2.89121659 -0.07152265
3.34628696 0.13944144 2.89121659 -0.05120654
3.29100960 0.22276886 2.89121659 -0.03251489
3.22718821 0.29974858 2.89121659 -0.01561421
3.15554595 0.36950841 2.89121659 -0.00062998
3.07689453 0.43125792 2.89121659 0.01235086
2.99212514 0.48429748 2.89121659 0.02327504
2.90219823 0.52802612 2.89121659 0.03211625
2.80813268 0.56194840 2.89121659 0.03886735
2.71099436 0.58567993 2.89121659 0.04353236
2.61188379 0.59895185 2.89121659 0.04611929
2.51192400 0.60161376 2.89121659 0.04663455
2.41224759 0.59363552 2.89121659 0.04507962
2.31398386 0.57510755 2.89121659 0.04145036
2.21824622 0.54623973 2.89121659 0.03573903
2.12611941 0.50735918 2.89121659 0.02793884
2.03864725 0.45890641 2.89121659 0.01805045
1.95682087 0.40143041 2.89121659 0.00608960
1.88156741 0.33558241 2.89121659 -0.00790479
1.81373946 0.26210850 2.89121659 -0.02386332
1.75410555 0.18184117 2.89121659 -0.04168020
1.70334139 0.09568987 2.89121659 -0.06120956
1.66202214 0.00463074 2.89121659 -0.08226427
1.63061601 -0.09030449 2.89121659 -0.10461754
1.60947872 -0.18804017 2.89121659 -0.12800695
1.59884988 -0.28746891 2.89121659 -0.15214067
1.59884988 -0.38746413 2.89121659 -0.17670506
1.60947872 -0.48689287 2.89121659 -0.20137312
1.63061601 -0.58462856 2.89121659 -0.22581306
1.66202214 -0.67956376 2.89121659 -0.24969645
1.70334139 -0.77062290 2.89121659 -0.27270556
1.75410555 -0.85677418 2.89121659 -0.29453937
1.81373946 -0.93704155 2.89121659 -0.31491855
1.88156741 -1.01051545 2.89121659 -0.33358894
1.95682087 -1.07636343 2.89121659 -0.35032408
2.03864725 -1.13383946 2.89121659 -0.36492662
2.12611941 -1.18229223 2.89121659 -0.37722894
2.21824622 -1.22117277 2.89121659 -0.38709337
2.31398386 -1.25004059 2.89121659 -0.39441189
2.41224759 -1.26856861 2.89121659 -0.39910577
2.51192400 -1.27654680 2.89121659 -0.40112515
2.61188379 -1.27388488 2.89121659 -0.40044874
2.71099436 -1.26061296 2.89121659 -0.39708367
2.80813268 -1.23688144 2.89121659 -0.39106550
2.90219823 -1.20295918 2.89121659 -0.38245854
2.99212514 -1.15923054 2.89121659 -0.37135613
3.07689453 -1.10619097 2.89121659 -0.35788112
3.15554595 -1.04444146 2.89121659 -0.34218617
3.22718821 -0.97468164 2.89121659 -0.32445385
3.29100960 -0.89770190 2.89121659 -0.30489624
3.34628696 -0.81437451 2.89121659 -0.28375391
3.39239399 -0.72564349 2.89121659 -0.26129400
3.42880835 -0.63251431 2.89121659 -0.23780725
3.45511734 -0.53604217 2.89121659 -0.21360376
3.47102292 -0.43732003 2.89121659 -0.18900746
3.47634490 -0.33746652 2.89121659 -0.16434944
3.56669664 -0.33746652 2.86028228 -0.15798006
3.56173804 -0.23653190 2.86028228 -0.13313724
3.54691002 -0.13656934 2.86028228 -0.10885246
3.52235531 -0.03854153 2.86028228 -0.08539849
3.48831044 0.05660748 2.86028228 -0.06302680
3.44510330 0.14796133 2.86028228 -0.04196140
3.39314997 0.23464025 2.86028228 -0.02239384
3.33295074 0.31580947 2.86028228 -0.00448004
3.26508549 0.39068728 2.86028228 0.01166088
3.19020768 0.45855257 2.86028228 0.02594554
3.10903844 0.51875177 2.86028228 0.03832309
3.02235951 0.57070512 2.86028228 0.04877011
2.93100567 0.61391226 2.86028228 0.05728418
2.83585669 0.64795713 2.86028228 0.06387673
2.73782887 0.67251179 2.86028228 0.06856576
2.63786628 0.68733986 2.86028228 0.07136948
2.53693169 0.69229846 2.86028228 0.07230098
2.43599705 0.68733986 2.86028228 0.07136503
2.33603451 0.67251179 2.86028228 0.06855692
2.23800669 0.64795713 2.86028228 0.06386357
2.14285765 0.61391226 2.86028228 0.05726685
2.05150382 0.57070512 2.86028228 0.04874878
1.96482489 0.51875177 2.86028228 0.03829798
1.88365570 0.45855257 2.86028228 0.02591691
1.80877789 0.39068728 2.86028228 0.01162902
1.74091258 0.31580947 2.86028228 -0.00451479
1.68071341 0.23464025 2.86028228 -0.02243112
1.62876003 0.14796133 2.86028228 -0.04200081
1.58555288 0.05660748 2.86028228 -0.06306794
1.55150802 -0.03854153 2.86028228 -0.08544094
1.52695336 -0.13656934 2.86028228 -0.10889578
1.51212529 -0.23653190 2.86028228 -0.13318099
1.50716669 -0.33746652 2.86028228 -0.15802382
1.51212529 -0.43840114 2.86028228 -0.18313721
1.52695336 -0.53836372 2.86028228 -0.20822699
1.55150802 -0.63639154 2.86028228 -0.23299878
1.58555288 -0.73154053 2.86028228 -0.25716435
1.62876003 -0.82289437 2.86028228 -0.28044699
1.68071341 -0.90957329 2.86028228 -0.30258606
1.74091258 -0.99074248 2.86028228 -0.32334022
1.80877789 -1.06562034 2.86028228 -0.34248999
1.88365570 -1.13348560 2.86028228 -0.35983909
1.96482489 -1.19368483 2.86028228 -0.37521536
2.05150382 -1.24563815 2.86028228 -0.38847087
2.14285765 -1.28884530 2.86028228 -0.39948176
2.23800669 -1.32289016 2.86028228 -0.40814779
2.33603451 -1.34744488 2.86028228 -0.41439179
2.43599705 -1.36227289 2.86028228 -0.41815908
2.53693169 -1.36723149 2.86028228 -0.41941710
2.63786628 -1.36227289 2.86028228 -0.41815502
2.73782887 -1.34744488 2.86028228 -0.41438369
2.83585669 -1.32289016 2.86028228 -0.40813574
2.93100567 -1.28884530 2.86028228 -0.39946584
3.02235951 -1.24563815 2.86028228 -0.38845122
3.10903844 -1.19368483 2.86028228 -0.37519213
3.19020768 -1.13348560 2.86028228 -0.35981247
3.26508549 -1.06562034 2.86028228 -0.34246020
3.33295074 -0.99074248 2.86028228 -0.32330753
3.39314997 -0.90957329 2.86028228 -0.30255074
3.44510330 -0.82289437 2.86028228 -0.28040936
3.48831044 -0.73154053 2.86028228 -0.25712473
3.52235531 -0.63639154 2.86028228 -0.23295754
3.54691002 -0.53836372 2.86028228 -0.20818450
3.56173804 -0.43840114 2.86028228 -0.18309388
3.56669664 -0.33746652 2.86028228 -0.15798006
3.65603214 -0.33746652 2.82652518 -0.15106509
3.65152699 -0.23715113 2.82652518 -0.12616644
3.63804774 -0.13764341 2.82652518 -0.10178001
3.61570298 -0.03974456 2.82652518 -0.07814342
3.58467257 0.05575722 2.82652518 -0.05547779
3.54520639 0.14809298 2.82652518 -0.03398249
3.49762216 0.23651931 2.82652518 -0.01383083
3.44230300 0.32032424 2.82652518 0.00483330
3.37969432 0.39883303 2.82652518 0.02189712
3.31030022 0.47141357 2.82652518 0.03727917
3.23467940 0.53748148 2.82652518 0.05092769
3.15344073 0.59650482 2.82652518 0.06281748
3.06723832 0.64800835 2.82652518 0.07294535
2.97676615 0.69157745 2.82652518 0.08132457
2.88275272 0.72686128 2.82652518 0.08797877
2.78595498 0.75357578 2.82652518 0.09293590
2.68715218 0.77150583 2.82652518 0.09622250
2.58713995 0.78050713 2.82652518 0.09785912
2.48672343 0.78050713 2.82652518 0.09785690
2.38671114 0.77150583 2.82652518 0.09621585
2.28790840 0.75357578 2.82652518 0.09292488
2.19111060 0.72686128 2.82652518 0.08796348
2.09709718 0.69157745 2.82652518 0.08130512
2.00662500 0.64800835 2.82652518 0.07292193
1.92042260 0.59650482 2.82652518 0.06279028
1.83918393 0.53748148 2.82652518 0.05089694
1.76356310 0.47141357 2.82652518 0.03724514
1.69416900 0.39883303 2.82652518 0.02186012
1.63156038 0.32032424 2.82652518 0.00479364
1.57624122 0.23651931 2.82652518 -0.01387279
1.52865699 0.14809298 2.82652518 -0.03402639
1.48919076 0.05575722 2.82652518 -0.05552323
1.45816035 -0.03974456 2.82652518 -0.07819003
1.43581558 -0.13764341 2.82652518 -0.10182737
1.42233633 -0.23715113 2.82652518 -0.12621415
1.41783119 -0.33746652 2.82652518 -0.15111277
1.42233633 -0.43778191 2.82652518 -0.17627470
1.43581558 -0.53728960 2.82652518 -0.20144627
1.45816035 -0.63518851 2.82652518 -0.22637399
1.48919076 -0.73069025 2.82652518 -0.25080938
1.52865699 -0.82302602 2.82652518 -0.27451334
1.57624122 -0.91145235 2.82652518 -0.29725941
1.63156038 -0.99525726 2.82652518 -0.31883648
1.69416900 -1.07376607 2.82652518 -0.33905061
1.76356310 -1.14634661 2.82652518 -0.35772628
1.83918393 -1.21241452 2.82652518 -0.37470692
1.92042260 -1.27143786 2.82652518 -0.38985508
2.00662500 -1.32294139 2.82652518 -0.40305223
2.09709718 -1.36651049 2.82652518 -0.41419835
2.19111060 -1.40179432 2.82652518 -0.42321131
2.28790840 -1.42850881 2.82652518 -0.43002635
2.38671114 -1.44643886 2.82652518 -0.43459543
2.48672343 -1.45544017 2.82652518 -0.43688686
2.58713995 -1.45544017 2.82652518 -0.43688485
2.68715218 -1.44643886 2.82652518 -0.43458941
2.78595498 -1.42850881 2.82652518 -0.43001634
2.88275272 -1.40179432 2.82652518 -0.42319740
2.97676615 -1.36651049 2.82652518 -0.41418062
3.06723832 -1.32294139 2.82652518 -0.40303081
3.15344073 -1.27143786 2.82652518 -0.38983011
3.23467940 -1.21241452 2.82652518 -0.37467856
3.31030022 -1.14634661 2.82652518 -0.35769474
3.37969432 -1.07376607 2.82652518 -0.33901610
3.44230300 -0.99525726 2.82652518 -0.31879923
3.49762216 -0.91145235 2.82652518 -0.29721970
3.54520639 -0.82302602 2.82652518 -0.27447146
3.58467257 -0.73069025 2.82652518 -0.25076565
3.61570298 -0.63518851 2.82652518 -0.22632873
3.63804774 -0.53728960 2.82652518 -0.20139984
3.65152699 -0.43778191 2.82652518 -0.17622746
3.74426325 -0.33746652 2.78997868 -0.14362179
3.74002899 -0.23643962 2.78997868 -0.11832163
3.72735583 -0.13612134 2.78997868 -0.09351200
3.70633269 -0.03721537 2.78997868 -0.06941151
3.67710709 0.05958457 2.78997868 -0.04622497
3.63988393 0.15359948 2.78997868 -0.02413870
3.59492442 0.24416990 2.78997868 -0.00331639
3.54254378 0.33066058 2.78997868 0.01610418
3.48310953 0.41246481 2.78997868 0.03401330
3.41703850 0.48900882 2.78997868 0.05033016
3.34479420 0.55975570 2.78997868 0.06500217
3.26688326 0.62420920 2.78997868 0.07800290
3.18385226 0.68191727 2.78997868 0.08932877
3.09628363 0.73247506 2.78997868 0.09899445
3.00479147 0.77552800 2.78997868 0.10702776
2.91001767 0.81077404 2.78997868 0.11346397
2.81262687 0.83796601 2.78997868 0.11834030
2.71330231 0.85691320 2.78997868 0.12169078
2.61274063 0.86748266 2.78997868 0.12354192
2.51164724 0.86960027 2.78997868 0.12390954
2.41073118 0.86325115 2.78997868 0.12279689
2.31070027 0.84847991 2.78997868 0.12019434
2.21225625 0.82539007 2.78997868 0.11608043
2.11608960 0.79414365 2.78997868 0.11042445
2.02287486 0.75495973 2.78997868 0.10319021
1.93326588 0.70811328 2.78997868 0.09434083
1.84789116 0.65393286 2.78997868 0.08384409
1.76734958 0.59279847 2.78997868 0.07167807
1.69220602 0.52513891 2.78997868 0.05783664
1.62298761 0.45142881 2.78997868 0.04233436
1.56017990 0.37218518 2.78997868 0.02521039
1.50422341 0.28796385 2.78997868 0.00653130
1.45551060 0.19935558 2.78997868 -0.01360763
1.41438317 0.10698188 2.78997868 -0.03508245
1.38112959 0.01149070 2.78997868 -0.05774206
1.35598320 -0.08644817 2.78997868 -0.08141101
1.33912023 -0.18614775 2.78997868 -0.10589313
1.33065912 -0.28690872 2.78997868 -0.13097613
1.33065912 -0.38802432 2.78997868 -0.15643635
1.33912023 -0.48878529 2.78997868 -0.18204379
1.35598320 -0.58848488 2.78997868 -0.20756685
1.38112959 -0.68642374 2.78997868 -0.23277670
1.41438317 -0.78191490 2.78997868 -0.25745119
1.45551060 -0.87428862 2.78997868 -0.28137796
1.50422341 -0.96289687 2.78997868 -0.30435700
1.56017990 -1.04711820 2.78997868 -0.32620253
1.62298761 -1.12636187 2.78997868 -0.34674421
1.69220602 -1.20007194 2.78997868 -0.36582785
1.76734958 -1.26773151 2.78997868 -0.38331568
1.84789116 -1.32886590 2.78997868 -0.39908623
1.93326588 -1.38304632 2.78997868 -0.41303404
2.02287486 -1.42989277 2.78997868 -0.42506906
2.11608960 -1.46907669 2.78997868 -0.43511612
2.21225625 -1.50032311 2.78997868 -0.44311421
2.31070027 -1.52341295 2.78997868 -0.44901597
2.41073118 -1.53818424 2.78997868 -0.45278710
2.51164724 -1.54453330 2.78997868 -0.45440597
2.61274063 -1.54241570 2.78997868 -0.45386340
2.71330231 -1.53184623 2.78997868 -0.45116245
2.81262687 -1.51289905 2.78997868 -0.44631854
2.91001767 -1.48570708 2.78997868 -0.43935960
3.00479147 -1.45046103 2.78997868 -0.43032643
3.09628363 -1.40740809 2.78997868 -0.41927316
3.18385226 -1.35685031 2.78997868 -0.40626783
3.26688326 -1.29914224 2.78997868 -0.39139299
3.34479420 -1.23468874 2.78997868 -0.37474635
3.41703850 -1.16394185 2.78997868 -0.35644134
3.48310953 -1.08739783 2.78997868 -0.33660756
3.54254378 -1.00559362 2.78997868 -0.31539104
3.59492442 -0.91910292 2.78997868 -0.29295409
3.63988393 -0.82853253 2.78997868 -0.26947496
3.67710709 -0.73451763 2.78997868 -0.24514671
3.70633269 -0.63771766 2.78997868 -0.22017583
3.72735583 -0.53881167 2.78997868 -0.19477995
3.74002899 -0.43849342 2.78997868 -0.16918502
3.83130286 -0.33746652 2.75067877 -0.13566923
3.82741061 -0.23716256 2.75067877 -0.11030796
3.81575728 -0.13746185 2.75067877 -0.08540357
3.79641290 -0.03896398 2.75067877 -0.06115160
3.76949388 0.05773866 2.75067877 -0.03773674
3.73516209 0.15206448 2.75067877 -0.01532883
3.69362403 0.24344621 2.75067877 0.00592086
3.64512945 0.33133426 2.75067877 0.02588264
3.58997005 0.41520006 2.75067877 0.04445079
3.52847752 0.49453924 2.75067877 0.06154479
3.46102174 0.56887464 2.75067877 0.07710955
3.38800838 0.63775920 2.75067877 0.09111437
3.30987656 0.70077862 2.75067877 0.10355092
3.22709613 0.75755392 2.75067877 0.11443002
3.14016495 0.80774366 2.75067877 0.12377773
3.04960588 0.85104595 2.75067877 0.13163077
2.95596357 0.88720038 2.75067877 0.13803169
2.85980110 0.91598956 2.75067877 0.14302412
2.76169687 0.93724025 2.75067877 0.14664818
2.66224086 0.95082476 2.75067877 0.14893668
2.56203124 0.95666126 2.75067877 0.14991202
2.46167071 0.95471479 2.75067877 0.14958420
2.36176272 0.94499698 2.75067877 0.14794987
2.26290828 0.92756626 2.75067877 0.14499268
2.16570185 0.90252751 2.75067877 0.14068474
2.07072802 0.87003128 2.75067877 0.13498916
1.97855798 0.83027300 2.75067877 0.12786357
1.88974610 0.78349179 2.75067877 0.11926431
1.80482642 0.72996903 2.75067877 0.10915118
1.72430976 0.67002661 2.75067877 0.09749222
1.64868026 0.60402496 2.75067877 0.08426845
1.57839285 0.53236111 2.75067877 0.06947823
1.51387020 0.45546597 2.75067877 0.05314076
1.45550033 0.37380207 2.75067877 0.03529875
1.40363432 0.28786051 2.75067877 0.01601998
1.35858411 0.19815816 2.75067877 -0.00460232
1.32062063 0.10523450 2.75067877 -0.02645021
1.28997218 0.00964838 2.75067877 -0.04938286
1.26682307 -0.08802532 2.75067877 -0.07323929
1.25131257 -0.18719919 2.75067877 -0.09784174
1.24353393 -0.28727679 2.75067877 -0.12299959
1.24353393 -0.38765624 2.75067877 -0.14851342
1.25131257 -0.48773384 2.75067877 -0.17417909
1.26682307 -0.58690772 2.75067877 -0.19979168
1.28997218 -0.68458142 2.75067877 -0.22514898
1.32062063 -0.78016756 2.75067877 -0.25005458
1.35858411 -0.87309120 2.75067877 -0.27432046
1.40363432 -0.96279352 2.75067877 -0.29776900
1.45550033 -1.04873510 2.75067877 -0.32023449
1.51387020 -1.13039901 2.75067877 -0.34156409
1.57839285 -1.20729415 2.75067877 -0.36161843
1.64868026 -1.27895800 2.75067877 -0.38027183
1.72430976 -1.34495965 2.75067877 -0.39741221
1.80482642 -1.40490207 2.75067877 -0.41294075
1.88974610 -1.45842483 2.75067877 -0.42677146
1.97855798 -1.50520603 2.75067877 -0.43883059
2.07072802 -1.54496432 2.75067877 -0.44905609
2.16570185 -1.57746055 2.75067877 -0.45739694
2.26290828 -1.60249930 2.75067877 -0.46381264
2.36176272 -1.61993002 2.75067877 -0.46827271
2.46167071 -1.62964783 2.75067877 -0.47075634
2.56203124 -1.63159430 2.75067877 -0.47125204
2.66224086 -1.62575779 2.75067877 -0.46975752
2.76169687 -1.61217329 2.75067877 -0.46627968
2.85980110 -1.59092260 2.75067877 -0.46083467
2.95596357 -1.56213341 2.75067877 -0.45344810
3.04960588 -1.52597898 2.75067877 -0.44415544
3.14016495 -1.48267669 2.75067877 -0.43300237
3.22709613 -1.43248695 2.75067877 -0.42004540
3.30987656 -1.37571166 2.75067877 -0.40535237
3.38800838 -1.31269224 2.75067877 -0.38900310
3.46102174 -1.24380768 2.75067877 -0.37108992
3.52847752 -1.16947228 2.75067877 -0.35171827
3.58997005 -1.09013309 2.75067877 -0.33100702
3.64512945 -1.00626732 2.75067877 -0.30908873
3.69362403 -0.91837922 2.75067877 -0.28610953
3.73516209 -0.82699750 2.75067877 -0.26222885
3.76949388 -0.73267170 2.75067877 -0.23761851
3.79641290 -0.63596905 2.75067877 -0.21246157
3.81575728 -0.53747121 2.75067877 -0.18695054
3.82741061 -0.43777048 2.75067877 -0.16128509
3.91706505 -0.33746652 2.70866434 -0.12722832
3.91338324 -0.23672325 2.70866434 -0.10149796
3.90235752 -0.13651748 2.70866434 -0.07620769
3.88404657 -0.03738387 2.70866434 -0.05154059
3.85854823 0.06014867 2.70866434 -0.02767066
3.82599850 0.15555976 2.70866434 -0.00475920
3.78657100 0.24834035 2.70866434 0.01704868
3.74047619 0.33799540 2.70866434 0.03762699
3.68795993 0.42404657 2.70866434 0.05687135
3.62930240 0.50603474 2.70866434 0.07470052
3.56481663 0.58352247 2.70866434 0.09105713
3.49484662 0.65609629 2.70866434 0.10590731
3.41976577 0.72336908 2.70866434 0.11923939
3.33997461 0.78498180 2.70866434 0.13106149
3.25589881 0.84060581 2.70866434 0.14139848
3.16798706 0.88994427 2.70866434 0.15028805
3.07670837 0.93273399 2.70866434 0.15777651
2.98254968 0.96874661 2.70866434 0.16391424
2.88601346 0.99779006 2.70866434 0.16875136
2.78761474 1.01970931 2.70866434 0.17233351
2.68787853 1.03438741 2.70866434 0.17469836
2.58733691 1.04174615 2.70866434 0.17587272
2.48652642 1.04174615 2.70866434 0.17587045
2.38598480 1.03438741 2.70866434 0.17469158
2.28624858 1.01970931 2.70866434 0.17232225
2.18784987 0.99779006 2.70866434 0.16873568
2.09131364 0.96874661 2.70866434 0.16389423
1.99715501 0.93273399 2.70866434 0.15775227
1.90587626 0.88994427 2.70866434 0.15025972
1.81796451 0.84060581 2.70866434 0.14136622
1.73388876 0.78498180 2.70866434 0.13102548
1.65409755 0.72336908 2.70866434 0.11919984
1.57901670 0.65609629 2.70866434 0.10586446
1.50904670 0.58352247 2.70866434 0.09101123
1.44456092 0.50603474 2.70866434 0.07465184
1.38590345 0.42404657 2.70866434 0.05682018
1.33338713 0.33799540 2.70866434 0.03757364
1.28729232 0.24834035 2.70866434 0.01699347
1.24786483 0.15555976 2.70866434 -0.00481593