ITEM: TIMESTEP
0
ITEM: NUMBER OF ATOMS
13442
ITEM: BOX BOUNDS pp pp pp
-1.0000000000000000e+01 1.0000000000000000e+01
-1.0000000000000000e+01 1.0000000000000000e+01
-1.0000000000000000e+01 1.0000000000000000e+01
ITEM: ATOMS x y z q
2.53693169 -0.33746652 3.04000502 -0.13541696
2.63242051 -0.33746652 3.03850496 -0.13520247
2.56643934 -0.24665121 3.03850496 -0.12073902
2.45967957 -0.28133957 3.03850496 -0.12624409
2.45967957 -0.39359347 3.03850496 -0.14422399
2.56643934 -0.42828183 3.03850496 -0.14982607
2.72781515 -0.33746652 3.03400627 -0.13456076
2.69751310 -0.23426711 3.03400627 -0.11811922
2.61622754 -0.16383279 3.03400627 -0.10703491
2.50976612 -0.14852594 3.03400627 -0.10464276
2.41192955 -0.19320640 3.03400627 -0.11164455
2.35378030 -0.28368842 3.03400627 -0.12596744
2.35378030 -0.39124461 3.03400627 -0.14321486
2.41192955 -0.48172664 3.03400627 -0.15788286
2.50976612 -0.52640710 3.03400627 -0.16517154
2.61622754 -0.51110026 3.03400627 -0.16267043
2.69751310 -0.44066593 3.03400627 -0.15120806
2.72781515 -0.33746652 3.03400627 -0.13456076
2.82302139 -0.33746652 3.02651339 -0.13349322
2.80370241 -0.23411899 3.02651339 -0.11699618
2.74835457 -0.14472911 3.02651339 -0.10292157
2.66445287 -0.08136948 3.02651339 -0.09306945
2.56332868 -0.05259718 3.02651339 -0.08863273
2.45863948 -0.06229807 3.02651339 -0.09012686
2.36452408 -0.10916198 3.02651339 -0.09737989
2.29369326 -0.18685967 3.02651339 -0.10953413
2.25571317 -0.28489767 3.02651339 -0.12507762
2.25571317 -0.39003537 3.02651339 -0.14196957
2.29369326 -0.48807336 3.02651339 -0.15789604
2.36452408 -0.56577107 3.02651339 -0.17061859
2.45863948 -0.61263499 3.02651339 -0.17832868
2.56332868 -0.62233586 3.02651339 -0.17992720
2.66445287 -0.59356355 3.02651339 -0.17518627
2.74835457 -0.53020392 3.02651339 -0.16478180
2.80370241 -0.44081406 3.02651339 -0.15019588
2.82302139 -0.33746652 3.02651339 -0.13349322
2.91794532 -0.33746652 3.01603368 -0.13200216
2.90381629 -0.23467027 3.01603368 -0.11554797
2.86247715 -0.13949794 3.01603368 -0.10052649
2.79699371 -0.05900804 3.01603368 -0.08800520
2.71222273 0.00082988 3.01603368 -0.07881757
2.61445120 0.03557789 3.01603368 -0.07353358
2.51093037 0.04265891 3.01603368 -0.07246213
2.40933796 0.02154776 3.01603368 -0.07566401
2.31720861 -0.02618983 3.01603368 -0.08295567
2.24137506 -0.09701339 3.01603368 -0.09389909
2.18746161 -0.18567026 3.01603368 -0.10779122
2.15946677 -0.28558517 3.01603368 -0.12367523
2.15946677 -0.38934787 3.01603368 -0.14039085
2.18746161 -0.48926278 3.01603368 -0.15666476
2.24137506 -0.57791965 3.01603368 -0.17122633
2.31720861 -0.64874322 3.01603368 -0.18292664
2.40933796 -0.69648081 3.01603368 -0.19084152
2.51093037 -0.71759195 3.01603368 -0.19434780
2.61445120 -0.71051093 3.01603368 -0.19317036
2.71222273 -0.67576294 3.01603368 -0.18740152
2.79699371 -0.61592499 3.01603368 -0.17749461
2.86247715 -0.53543510 3.01603368 -0.16423109
2.90381629 -0.44026278 3.01603368 -0.14865893
2.91794532 -0.33746652 3.01603368 -0.13200216
3.01249322 -0.33746652 3.00257750 -0.13009085
3.00137489 -0.23523484 3.00257750 -0.11366953
2.96853967 -0.13778340 3.00257750 -0.09823463
2.91552296 -0.04966893 3.00257750 -0.08449029
2.84480369 0.02498846 3.00257750 -0.07302225
2.75968875 0.08269784 3.00257750 -0.06428010
2.66415785 0.12076082 3.00257750 -0.05857692
2.56267806 0.13739759 3.00257750 -0.05610085
2.45999438 0.13183024 3.00257750 -0.05692920
2.36090821 0.10431910 3.00257750 -0.06103639
2.27005270 0.05615055 3.00257750 -0.06829122
2.19167614 -0.01042309 3.00257750 -0.07844487
2.12944333 -0.09228892 3.00257750 -0.09111682
2.08626424 -0.18561899 3.00257750 -0.10578833
2.06415787 -0.28604927 3.00257750 -0.12181102
2.06415787 -0.38888377 3.00257750 -0.13843385
2.08626424 -0.48931405 3.00257750 -0.15484575
2.12944333 -0.58264409 3.00257750 -0.17022732
2.19167614 -0.66450994 3.00257750 -0.18380354
2.27005270 -0.73108358 3.00257750 -0.19489079
2.36090821 -0.77925213 3.00257750 -0.20293433
2.45999438 -0.80676330 3.00257750 -0.20753499
2.56267806 -0.81233062 3.00257750 -0.20846598
2.66415785 -0.79569387 3.00257750 -0.20568158
2.75968875 -0.75763091 3.00257750 -0.19931874
2.84480369 -0.69992152 3.00257750 -0.18969205
2.91552296 -0.62526411 3.00257750 -0.17728120
2.96853967 -0.53714963 3.00257750 -0.16270945
3.00137489 -0.43969820 3.00257750 -0.14671147
3.10657184 -0.33746652 2.98615819 -0.12776351
3.09741745 -0.23575334 2.98615819 -0.11135585
3.07024865 -0.13730932 2.98615819 -0.09569575
3.02593855 -0.04529850 2.98615819 -0.08128552
2.96591141 0.03732178 2.98615819 -0.06855734
2.89209651 0.10789607 2.98615819 -0.05786085
2.80686631 0.16415604 2.98615819 -0.04946033
2.71296014 0.20429344 2.98615819 -0.04354042
2.61339634 0.22701824 2.98615819 -0.04021720
2.51137487 0.23160003 2.98615819 -0.03955022
2.41017480 0.21789155 2.98615819 -0.04155091
2.31304886 0.18633341 2.98615819 -0.04618444
2.22311862 0.13793990 2.98615819 -0.05336433
2.14327464 0.07426645 2.98615819 -0.06294173
2.07608313 -0.00264045 2.98615819 -0.07469332
2.02370366 -0.09030893 2.98615819 -0.08831233
1.98781974 -0.18592125 2.98615819 -0.10340685
1.96958473 -0.28640437 2.98615819 -0.11950748
1.96958473 -0.38852867 2.98615819 -0.13608427
1.98781974 -0.48901178 2.98615819 -0.15257067
2.02370366 -0.58462411 2.98615819 -0.16839133
2.07608313 -0.67229260 2.98615819 -0.18298995
2.14327464 -0.74919948 2.98615819 -0.19585441
2.22311862 -0.81287297 2.98615819 -0.20653746
2.31304886 -0.86126642 2.98615819 -0.21467210
2.41017480 -0.89282458 2.98615819 -0.21998234
2.51137487 -0.90653307 2.98615819 -0.22228983
2.61339634 -0.90195129 2.98615819 -0.22151756
2.71296014 -0.87922647 2.98615819 -0.21769127
2.80686631 -0.83908909 2.98615819 -0.21093900
2.89209651 -0.78282910 2.98615819 -0.20148859
2.96591141 -0.71225483 2.98615819 -0.18966263
3.02593855 -0.62963453 2.98615819 -0.17586991
3.07024865 -0.53762372 2.98615819 -0.16059240
3.09741745 -0.43917969 2.98615819 -0.14436720
3.20008821 -0.33746652 2.96679185 -0.12502536
3.19231629 -0.23623615 2.96679185 -0.10861395
3.16918274 -0.13737853 2.96679185 -0.09280691
3.13122974 -0.04321081 2.96679185 -0.07798379
3.07934690 0.04405982 2.96679185 -0.06447839
3.01475031 0.12238779 2.96679185 -0.05256941
2.93895402 0.18993716 2.96679185 -0.04247663
2.85373472 0.24512463 2.96679185 -0.03436268
2.76108980 0.28665667 2.96679185 -0.02833955
2.66319078 0.31355978 2.96679185 -0.02447793
2.56233240 0.32520339 2.96679185 -0.02281695
2.46087864 0.32131458 2.96679185 -0.02337186
2.36120746 0.30198450 2.96679185 -0.02613768
2.26565513 0.26766623 2.96679185 -0.03108792
2.17646129 0.21916416 2.96679185 -0.03816880
2.09571655 0.15761514 2.96679185 -0.04729020
2.02531358 0.08446182 2.96679185 -0.05831584
1.96690244 0.00141887 2.96679185 -0.07105504
1.92185233 -0.08956728 2.96679185 -0.08525842
1.89121917 -0.18636397 2.96679185 -0.10061885
1.87572095 -0.28670238 2.96679185 -0.11677819
1.87572095 -0.38823066 2.96679185 -0.13333888
1.89121917 -0.48856907 2.96679185 -0.14987916
1.92185233 -0.58536575 2.96679185 -0.16596991
1.96690244 -0.67635192 2.96679185 -0.18119130
2.02531358 -0.75939487 2.96679185 -0.19514780
2.09571655 -0.83254819 2.96679185 -0.20748079
2.17646129 -0.89409719 2.96679185 -0.21787811
2.26565513 -0.94259928 2.96679185 -0.22608099
2.36120746 -0.97691752 2.96679185 -0.23188849
2.46087864 -0.99624762 2.96679185 -0.23516026
2.56233240 -1.00013643 2.96679185 -0.23581796
2.66319078 -0.98849285 2.96679185 -0.23384591
2.76108980 -0.96158970 2.96679185 -0.22929118
2.85373472 -0.92005767 2.96679185 -0.22226331
2.93895402 -0.86487022 2.96679185 -0.21293321
3.01475031 -0.79732083 2.96679185 -0.20153120
3.07934690 -0.71899284 2.96679185 -0.18834347
3.13122974 -0.63172224 2.96679185 -0.17370646
3.16918274 -0.53755451 2.96679185 -0.15799865
3.19231629 -0.43869689 2.96679185 -0.14162945
3.29295020 -0.33746652 2.94449768 -0.12188259
3.28620462 -0.23669912 2.94449768 -0.10545277
3.26608822 -0.13772991 2.94449768 -0.08953410
3.23296000 -0.04232501 2.94449768 -0.07442622
3.18741119 0.04781309 2.94449768 -0.06039690
3.13025452 0.13107587 2.94449768 -0.04767481
3.06251002 0.20597749 2.94449768 -0.03644545
2.98538655 0.27118134 2.94449768 -0.02685080
2.90026038 0.32552386 2.94449768 -0.01899248
2.80865058 0.36803529 2.94449768 -0.01293775
2.71219199 0.39795703 2.94449768 -0.00872720
2.61260585 0.41475512 2.94449768 -0.00638266
2.51166931 0.41812980 2.94449768 -0.00591382
2.41118362 0.40802084 2.94449768 -0.00732241
2.31294186 0.38460864 2.94449768 -0.01060302
2.21869718 0.34831100 2.94449768 -0.01574057
2.13013147 0.29977564 2.94449768 -0.02270479
2.04882507 0.23986867 2.94449768 -0.03144274
1.97622897 0.16965915 2.94449768 -0.04187085
1.91363860 0.09039996 2.94449768 -0.05386790
1.86217090 0.00350547 2.94449768 -0.06727030
1.82274436 -0.08947365 2.94449768 -0.08187068
1.79606251 -0.18687823 2.94449768 -0.09742008
1.78260146 -0.28697005 2.94449768 -0.11363370
1.78260146 -0.38796298 2.94449768 -0.13019944
1.79606251 -0.48805481 2.94449768 -0.14678829
1.82274436 -0.58545937 2.94449768 -0.16306548
1.86217090 -0.67843852 2.94449768 -0.17870134
1.91363860 -0.76533298 2.94449768 -0.19338109
1.97622897 -0.84459221 2.94449768 -0.20681305
2.04882507 -0.91480172 2.94449768 -0.21873501
2.13013147 -0.97470868 2.94449768 -0.22891894
2.21869718 -1.02324406 2.94449768 -0.23717402
2.31294186 -1.05954168 2.94449768 -0.24334854
2.41118362 -1.08295390 2.94449768 -0.24733086
2.51166931 -1.09306283 2.94449768 -0.24904986
2.61260585 -1.08968816 2.94449768 -0.24847504
2.71219199 -1.07289007 2.94449768 -0.24561660
2.80865058 -1.04296834 2.94449768 -0.24052538
2.90026038 -1.00045690 2.94449768 -0.23329281
2.98538655 -0.94611439 2.94449768 -0.22405067
3.06251002 -0.88091053 2.94449768 -0.21297042
3.13025452 -0.80600891 2.94449768 -0.20026182
3.18741119 -0.72274614 2.94449768 -0.18617047
3.23296000 -0.63260803 2.94449768 -0.17097401
3.26608822 -0.53720313 2.94449768 -0.15497661
3.28620462 -0.43823393 2.94449768 -0.13850163
3.38506605 -0.33746652 2.91929763 -0.11834244
3.37911307 -0.23715498 2.91929763 -0.10188183
3.36133770 -0.13825159 2.91929763 -0.08586769
3.33198949 -0.04214475 2.91929763 -0.07054481
3.29148041 0.04981643 2.91929763 -0.05613479
3.24037916 0.13634100 2.91929763 -0.04283022
3.17940300 0.21621435 2.91929763 -0.03079085
3.10940796 0.28831524 2.91929763 -0.02014215
3.03137658 0.35163152 2.91929763 -0.01097639
2.94640435 0.40527438 2.91929763 -0.00335604
2.85568394 0.44849078 2.91929763 0.00268095
2.76048902 0.48067406 2.91929763 0.00711481
2.66215582 0.50137245 2.91929763 0.00993747
2.56206474 0.51029537 2.91929763 0.01114688
2.46162081 0.50731758 2.91929763 0.01074294
2.36223412 0.49248087 2.91929763 0.00872562
2.26529979 0.46599351 2.91929763 0.00509564
2.17217861 0.42822734 2.91929763 -0.00014255
2.08417774 0.37971251 2.91929763 -0.00697580
2.00253251 0.32113005 2.91929763 -0.01537607
1.92838909 0.25330235 2.91929763 -0.02529387
1.86278829 0.17718154 2.91929763 -0.03665239
1.80665102 0.09383620 2.91929763 -0.04934302
1.76076524 0.00443631 2.91929763 -0.06322311
1.72577510 -0.08976314 2.91929763 -0.07811613
1.70217191 -0.18743980 2.91929763 -0.09381437
1.69028685 -0.28722251 2.91929763 -0.11008380
1.69028685 -0.38771053 2.91929763 -0.12667064
1.70217191 -0.48749324 2.91929763 -0.14330886
1.72577510 -0.58516991 2.91929763 -0.15972807
1.76076524 -0.67936934 2.91929763 -0.17566109
1.80665102 -0.76876924 2.91929763 -0.19085066
1.86278829 -0.85211457 2.91929763 -0.20505521
1.92838909 -0.92823541 2.91929763 -0.21805332
2.00253251 -0.99606309 2.91929763 -0.22964701
2.08417774 -1.05464553 2.91929763 -0.23966397
2.17217861 -1.10316037 2.91929763 -0.24795888
2.26529979 -1.14092657 2.91929763 -0.25441405
2.36223412 -1.16741389 2.91929763 -0.25893964
2.46162081 -1.18225063 2.91929763 -0.26147359
2.56206474 -1.18522842 2.91929763 -0.26198152
2.66215582 -1.17630549 2.91929763 -0.26045655
2.76048902 -1.15560710 2.91929763 -0.25691934
2.85568394 -1.12342383 2.91929763 -0.25141811
2.94640435 -1.08020742 2.91929763 -0.24402880
3.03137658 -1.02656454 2.91929763 -0.23485522
3.10940796 -0.96324830 2.91929763 -0.22402893
3.17940300 -0.89114740 2.91929763 -0.21170889
3.24037916 -0.81127406 2.91929763 -0.19808047
3.29148041 -0.72474944 2.91929763 -0.18335373
3.33198949 -0.63278827 2.91929763 -0.16776065
3.36133770 -0.53668147 2.91929763 -0.15155129
3.37911307 -0.43777806 2.91929763 -0.13498865
3.47634490 -0.33746652 2.89121659 -0.11441321
3.47102292 -0.23761301 2.89121659 -0.09791118
3.45511734 -0.13889089 2.89121659 -0.08180838
3.42880835 -0.04241871 2.89121659 -0.06631032
3.39239399 0.05071047 2.89121659 -0.05160512
3.34628696 0.13944144 2.89121659 -0.03785868
3.29100960 0.22276886 2.89121659 -0.02521129
3.22718821 0.29974858 2.89121659 -0.01377559
3.15554595 0.36950841 2.89121659 -0.00363651
3.07689453 0.43125792 2.89121659 0.00514713
2.99212514 0.48429748 2.89121659 0.01253928
2.90219823 0.52802612 2.89121659 0.01852212
2.80813268 0.56194840 2.89121659 0.02309082
2.71099436 0.58567993 2.89121659 0.02624808
2.61188379 0.59895185 2.89121659 0.02799930
2.51192400 0.60161376 2.89121659 0.02834882
2.41224759 0.59363552 2.89121659 0.02729761
2.31398386 0.57510755 2.89121659 0.02484286
2.21824622 0.54623973 2.89121659 0.02097932
2.12611941 0.50735918 2.89121659 0.01570238
2.03864725 0.45890641 2.89121659 0.00901248
1.95682087 0.40143041 2.89121659 0.00092026
1.88156741 0.33558241 2.89121659 -0.00854795
1.81373946 0.26210850 2.89121659 -0.01934522
1.75410555 0.18184117 2.89121659 -0.03139997
1.70334139 0.09568987 2.89121659 -0.04461349
1.66202214 0.00463074 2.89121659 -0.05885918
1.63061601 -0.09030449 2.89121659 -0.07398358
1.60947872 -0.18804017 2.89121659 -0.08980914
1.59884988 -0.28746891 2.89121659 -0.10613840
1.59884988 -0.38746413 2.89121659 -0.12275914
1.60947872 -0.48689287 2.89121659 -0.13945009
1.63061601 -0.58462856 2.89121659 -0.15598677
1.66202214 -0.67956376 2.89121659 -0.17214694
1.70334139 -0.77062290 2.89121659 -0.18771561
1.75410555 -0.85677418 2.89121659 -0.20248911
1.81373946 -0.93704155 2.89121659 -0.21627843
1.88156741 -1.01051545 2.89121659 -0.22891160
1.95682087 -1.07636343 2.89121659 -0.24023538
2.03864725 -1.13383946 2.89121659 -0.25011623
2.12611941 -1.18229223 2.89121659 -0.25844075
2.21824622 -1.22117277 2.89121659 -0.26511578
2.31398386 -1.25004059 2.89121659 -0.27006821
2.41224759 -1.26856861 2.89121659 -0.27324479
2.51192400 -1.27654680 2.89121659 -0.27461177
2.61188379 -1.27388488 2.89121659 -0.27415474
2.71099436 -1.26061296 2.89121659 -0.27187851
2.80813268 -1.23688144 2.89121659 -0.26780717
2.90219823 -1.20295918 2.89121659 -0.26198419
2.99212514 -1.15923054 2.89121659 -0.25447275
3.07689453 -1.10619097 2.89121659 -0.24535595
3.15554595 -1.04444146 2.89121659 -0.23473709
3.22718821 -0.97468164 2.89121659 -0.22273969
3.29100960 -0.89770190 2.89121659 -0.20950723
3.34628696 -0.81437451 2.89121659 -0.19520249
3.39239399 -0.72564349 2.89121659 -0.18000621
3.42880835 -0.63251431 2.89121659 -0.16411511
3.45511734 -0.53604217 2.89121659 -0.14773898
3.47102292 -0.43732003 2.89121659 -0.13109701
3.47634490 -0.33746652 2.89121659 -0.11441321
3.56669664 -0.33746652 2.86028228 -0.11010430
3.56173804 -0.23653190 2.86028228 -0.09329540
3.54691002 -0.13656934 2.86028228 -0.07686400
3.52235531 -0.03854153 2.86028228 -0.06099465
3.48831044 0.05660748 2.86028228 -0.04585751
3.44510330 0.14796133 2.86028228 -0.03160413
3.39314997 0.23464025 2.86028228 -0.01836412
3.33295074 0.31580947 2.86028228 -0.00624298
3.26508549 0.39068728 2.86028228 0.00467869
3.19020768 0.45855257 2.86028228 0.01434447
3.10903844 0.51875177 2.86028228 0.02271995
3.02235951 0.57070512 2.86028228 0.02978927
2.93100567 0.61391226 2.86028228 0.03555079
2.83585669 0.64795713 2.86028228 0.04001223
2.73782887 0.67251179 2.86028228 0.04318576
2.63786628 0.68733986 2.86028228 0.04508369
2.53693169 0.69229846 2.86028228 0.04571486
2.43599705 0.68733986 2.86028228 0.04508249
2.33603451 0.67251179 2.86028228 0.04318337
2.23800669 0.64795713 2.86028228 0.04000865
2.14285765 0.61391226 2.86028228 0.03554605
2.05150382 0.57070512 2.86028228 0.02978338
1.96482489 0.51875177 2.86028228 0.02271295
1.88365570 0.45855257 2.86028228 0.01433639
1.80877789 0.39068728 2.86028228 0.00466958
1.74091258 0.31580947 2.86028228 -0.00625305
1.68071341 0.23464025 2.86028228 -0.01837508
1.62876003 0.14796133 2.86028228 -0.03161589
1.58555288 0.05660748 2.86028228 -0.04586997
1.55150802 -0.03854153 2.86028228 -0.06100771
1.52695336 -0.13656934 2.86028228 -0.07687753
1.51212529 -0.23653190 2.86028228 -0.09330926
1.50716669 -0.33746652 2.86028228 -0.11011837
1.51212529 -0.43840114 2.86028228 -0.12711062
1.52695336 -0.53836372 2.86028228 -0.14408696
1.55150802 -0.63639154 2.86028228 -0.16084821
1.58555288 -0.73154053 2.86028228 -0.17719933
1.62876003 -0.82289437 2.86028228 -0.19295310
1.68071341 -0.90957329 2.86028228 -0.20793315
1.74091258 -0.99074248 2.86028228 -0.22197620
1.80877789 -1.06562034 2.86028228 -0.23493372
1.88365570 -1.13348560 2.86028228 -0.24667292
1.96482489 -1.19368483 2.86028228 -0.25707729
2.05150382 -1.24563815 2.86028228 -0.26604675
2.14285765 -1.28884530 2.86028228 -0.27349748
2.23800669 -1.32289016 2.86028228 -0.27936165
2.33603451 -1.34744488 2.86028228 -0.28358705
2.43599705 -1.36227289 2.86028228 -0.28613669
2.53693169 -1.36723149 2.86028228 -0.28698851
2.63786628 -1.36227289 2.86028228 -0.28613521
2.73782887 -1.34744488 2.86028228 -0.28358411
2.83585669 -1.32289016 2.86028228 -0.27935728
2.93100567 -1.28884530 2.86028228 -0.27349173
3.02235951 -1.24563815 2.86028228 -0.26603968
3.10903844 -1.19368483 2.86028228 -0.25706899
3.19020768 -1.13348560 2.86028228 -0.24666346
3.26508549 -1.06562034 2.86028228 -0.23492322
3.33295074 -0.99074248 2.86028228 -0.22196478
3.39314997 -0.90957329 2.86028228 -0.20792093
3.44510330 -0.82289437 2.86028228 -0.19294021
3.48831044 -0.73154053 2.86028228 -0.17718591
3.52235531 -0.63639154 2.86028228 -0.16083441
3.54691002 -0.53836372 2.86028228 -0.14407292
3.56173804 -0.43840114 2.86028228 -0.12709649
3.56669664 -0.33746652 2.86028228 -0.11010430
3.65603214 -0.33746652 2.82652518 -0.10542623
3.65152699 -0.23715113 2.82652518 -0.08857957
3.63804774 -0.13764341 2.82652518 -0.07207942
3.61570298 -0.03974456 2.82652518 -0.05608654
3.58467257 0.05575722 2.82652518 -0.04075054
3.54520639 0.14809298 2.82652518 -0.02620634
3.49762216 0.23651931 2.82652518 -0.01257116
3.44230300 0.32032424 2.82652518 0.00005760
3.37969432 0.39883303 2.82652518 0.01160366
3.31030022 0.47141357 2.82652518 0.02201189
3.23467940 0.53748148 2.82652518 0.03124726
3.15344073 0.59650482 2.82652518 0.03929272
3.06723832 0.64800835 2.82652518 0.04614611
2.97676615 0.69157745 2.82652518 0.05181639
2.88275272 0.72686128 2.82652518 0.05631955
2.78595498 0.75357578 2.82652518 0.05967447
2.68715218 0.77150583 2.82652518 0.06189913
2.58713995 0.78050713 2.82652518 0.06300740
2.48672343 0.78050713 2.82652518 0.06300682
2.38671114 0.77150583 2.82652518 0.06189737
2.28790840 0.75357578 2.82652518 0.05967155
2.19111060 0.72686128 2.82652518 0.05631546
2.09709718 0.69157745 2.82652518 0.05181115
2.00662500 0.64800835 2.82652518 0.04613975
1.92042260 0.59650482 2.82652518 0.03928526
1.83918393 0.53748148 2.82652518 0.03123872
1.76356310 0.47141357 2.82652518 0.02200231
1.69416900 0.39883303 2.82652518 0.01159310
1.63156038 0.32032424 2.82652518 0.00004612
1.57624122 0.23651931 2.82652518 -0.01258350
1.52865699 0.14809298 2.82652518 -0.02621944
1.48919076 0.05575722 2.82652518 -0.04076431
1.45816035 -0.03974456 2.82652518 -0.05610088
1.43581558 -0.13764341 2.82652518 -0.07209421
1.42233633 -0.23715113 2.82652518 -0.08859469
1.41783119 -0.33746652 2.82652518 -0.10544156
1.42233633 -0.43778191 2.82652518 -0.12246666
1.43581558 -0.53728960 2.82652518 -0.13949835
1.45816035 -0.63518851 2.82652518 -0.15636509
1.48919076 -0.73069025 2.82652518 -0.17289877
1.52865699 -0.82302602 2.82652518 -0.18893760
1.57624122 -0.91145235 2.82652518 -0.20432835
1.63156038 -0.99525726 2.82652518 -0.21892816
1.69416900 -1.07376607 2.82652518 -0.23260583
1.76356310 -1.14634661 2.82652518 -0.24524258
1.83918393 -1.21241452 2.82652518 -0.25673247
1.92042260 -1.27143786 2.82652518 -0.26698249
2.00662500 -1.32294139 2.82652518 -0.27591245
2.09709718 -1.36651049 2.82652518 -0.28345467
2.19111060 -1.40179432 2.82652518 -0.28955357
2.28790840 -1.42850881 2.82652518 -0.29416533
2.38671114 -1.44643886 2.82652518 -0.29725746
2.48672343 -1.45544017 2.82652518 -0.29880849
2.58713995 -1.45544017 2.82652518 -0.29880775
2.68715218 -1.44643886 2.82652518 -0.29725525
2.78595498 -1.42850881 2.82652518 -0.29416167
2.88275272 -1.40179432 2.82652518 -0.28954849
2.97676615 -1.36651049 2.82652518 -0.28344821
3.06723832 -1.32294139 2.82652518 -0.27590469
3.15344073 -1.27143786 2.82652518 -0.26697349
3.23467940 -1.21241452 2.82652518 -0.25672231
3.31030022 -1.14634661 2.82652518 -0.24523136
3.37969432 -1.07376607 2.82652518 -0.23259366
3.44230300 -0.99525726 2.82652518 -0.21891514
3.49762216 -0.91145235 2.82652518 -0.20431460
3.54520639 -0.82302602 2.82652518 -0.18892326
3.58467257 -0.73069025 2.82652518 -0.17288396
3.61570298 -0.63518851 2.82652518 -0.15634995
3.63804774 -0.53728960 2.82652518 -0.13948301
3.65152699 -0.43778191 2.82652518 -0.12245126
3.74426325 -0.33746652 2.78997868 -0.10039069
3.74002899 -0.23643962 2.78997868 -0.08327238
3.72735583 -0.13612134 2.78997868 -0.06648590
3.70633269 -0.03721537 2.78997868 -0.05017916
3.67710709 0.05958457 2.78997868 -0.03449074
3.63988393 0.15359948 2.78997868 -0.01954670
3.59492442 0.24416990 2.78997868 -0.00545780
3.54254378 0.33066058 2.78997868 0.00768274
3.48310953 0.41246481 2.78997868 0.01980070
3.41703850 0.48900882 2.78997868 0.03084139
3.34479420 0.55975570 2.78997868 0.04076923
3.26688326 0.62420920 2.78997868 0.04956633
3.18385226 0.68191727 2.78997868 0.05723026
3.09628363 0.73247506 2.78997868 0.06377095
3.00479147 0.77552800 2.78997868 0.06920720
2.91001767 0.81077404 2.78997868 0.07356288
2.81262687 0.83796601 2.78997868 0.07686316
2.71330231 0.85691320 2.78997868 0.07913106
2.61274063 0.86748266 2.78997868 0.08038450
2.51164724 0.86960027 2.78997868 0.08063417
2.41073118 0.86325115 2.78997868 0.07988228
2.31070027 0.84847991 2.78997868 0.07812228
2.21225625 0.82539007 2.78997868 0.07533965
2.11608960 0.79414365 2.78997868 0.07151361
2.02287486 0.75495973 2.78997868 0.06661964
1.93326588 0.70811328 2.78997868 0.06063281
1.84789116 0.65393286 2.78997868 0.05353129
1.76734958 0.59279847 2.78997868 0.04530024
1.69220602 0.52513891 2.78997868 0.03593552
1.62298761 0.45142881 2.78997868 0.02544697
1.56017990 0.37218518 2.78997868 0.01386109
1.50422341 0.28796385 2.78997868 0.00122290
1.45551060 0.19935558 2.78997868 -0.01240310
1.41438317 0.10698188 2.78997868 -0.02693307
1.38112959 0.01149070 2.78997868 -0.04226477
1.35598320 -0.08644817 2.78997868 -0.05827947
1.33912023 -0.18614775 2.78997868 -0.07484445
1.33065912 -0.28690872 2.78997868 -0.09181606
1.33065912 -0.38802432 2.78997868 -0.10904297
1.33912023 -0.48878529 2.78997868 -0.12636955
1.35598320 -0.58848488 2.78997868 -0.14363909
1.38112959 -0.68642374 2.78997868 -0.16069676
1.41438317 -0.78191490 2.78997868 -0.17739223
1.45551060 -0.87428862 2.78997868 -0.19358184
1.50422341 -0.96289687 2.78997868 -0.20913023
1.56017990 -1.04711820 2.78997868 -0.22391170
1.62298761 -1.12636187 2.78997868 -0.23781100
1.69220602 -1.20007194 2.78997868 -0.25072378
1.76734958 -1.26773151 2.78997868 -0.26255684
1.84789116 -1.32886590 2.78997868 -0.27322799
1.93326588 -1.38304632 2.78997868 -0.28266585
2.02287486 -1.42989277 2.78997868 -0.29080951
2.11608960 -1.46907669 2.78997868 -0.29760809
2.21225625 -1.50032311 2.78997868 -0.30302032
2.31070027 -1.52341295 2.78997868 -0.30701414
2.41073118 -1.53818424 2.78997868 -0.30956635
2.51164724 -1.54453330 2.78997868 -0.31066233
2.61274063 -1.54241570 2.78997868 -0.31029583
2.71330231 -1.53184623 2.78997868 -0.30846895
2.81262687 -1.51289905 2.78997868 -0.30519211
2.91001767 -1.48570708 2.78997868 -0.30048420
3.00479147 -1.45046103 2.78997868 -0.29437283
3.09628363 -1.40740809 2.78997868 -0.28689463
3.18385226 -1.35685031 2.78997868 -0.27809563
3.26688326 -1.29914224 2.78997868 -0.26803167
3.34479420 -1.23468874 2.78997868 -0.25676888
3.41703850 -1.16394185 2.78997868 -0.24438399
3.48310953 -1.08739783 2.78997868 -0.23096470
3.54254378 -1.00559362 2.78997868 -0.21660979
3.59492442 -0.91910292 2.78997868 -0.20142910
3.63988393 -0.82853253 2.78997868 -0.18554322
3.67710709 -0.73451763 2.78997868 -0.16908278
3.70633269 -0.63771766 2.78997868 -0.15218748
3.72735583 -0.53881167 2.78997868 -0.13500457
3.74002899 -0.43849342 2.78997868 -0.11768694
3.83130286 -0.33746652 2.75067877 -0.09501057
3.82741061 -0.23716256 2.75067877 -0.07785092
3.81575728 -0.13746185 2.75067877 -0.06100034
3.79641290 -0.03896398 2.75067877 -0.04459114
3.76949388 0.05773866 2.75067877 -0.02874827
3.73516209 0.15206448 2.75067877 -0.01358664
3.69362403 0.24344621 2.75067877 0.00079139
3.64512945 0.33133426 2.75067877 0.01429808
3.58997005 0.41520006 2.75067877 0.02686189
3.52847752 0.49453924 2.75067877 0.03842836
3.46102174 0.56887464 2.75067877 0.04896018
3.38800838 0.63775920 2.75067877 0.05843661
3.30987656 0.70077862 2.75067877 0.06685198
3.22709613 0.75755392 2.75067877 0.07421363
3.14016495 0.80774366 2.75067877 0.08053918
3.04960588 0.85104595 2.75067877 0.08585346
2.95596357 0.88720038 2.75067877 0.09018526
2.85980110 0.91598956 2.75067877 0.09356410
2.76169687 0.93724025 2.75067877 0.09601710
2.66224086 0.95082476 2.75067877 0.09756647
2.56203124 0.95666126 2.75067877 0.09822735
2.46167071 0.95471479 2.75067877 0.09800649
2.36176272 0.94499698 2.75067877 0.09690162
2.26290828 0.92756626 2.75067877 0.09490167
2.16570185 0.90252751 2.75067877 0.09198776
2.07072802 0.87003128 2.75067877 0.08813492
1.97855798 0.83027300 2.75067877 0.08331447
1.88974610 0.78349179 2.75067877 0.07749687
1.80482642 0.72996903 2.75067877 0.07065491
1.72430976 0.67002661 2.75067877 0.06276696
1.64868026 0.60402496 2.75067877 0.05382017
1.57839285 0.53236111 2.75067877 0.04381343
1.51387020 0.45546597 2.75067877 0.03275972
1.45550033 0.37380207 2.75067877 0.02068795
1.40363432 0.28786051 2.75067877 0.00764396
1.35858411 0.19815816 2.75067877 -0.00630914
1.32062063 0.10523450 2.75067877 -0.02109158
1.28997218 0.00964838 2.75067877 -0.03660805
1.26682307 -0.08802532 2.75067877 -0.05274963
1.25131257 -0.18719919 2.75067877 -0.06939605
1.24353393 -0.28727679 2.75067877 -0.08641832
1.24353393 -0.38765624 2.75067877 -0.10368152
1.25131257 -0.48773384 2.75067877 -0.12104750
1.26682307 -0.58690772 2.75067877 -0.13837762
1.28997218 -0.68458142 2.75067877 -0.15553505
1.32062063 -0.78016756 2.75067877 -0.17238690
1.35858411 -0.87309120 2.75067877 -0.18880594
1.40363432 -0.96279352 2.75067877 -0.20467199
1.45550033 -1.04873510 2.75067877 -0.21987293
1.51387020 -1.13039901 2.75067877 -0.23430532
1.57839285 -1.20729415 2.75067877 -0.24787488
1.64868026 -1.27895800 2.75067877 -0.26049657
1.72430976 -1.34495965 2.75067877 -0.27209454
1.80482642 -1.40490207 2.75067877 -0.28260193
1.88974610 -1.45842483 2.75067877 -0.29196055
1.97855798 -1.50520603 2.75067877 -0.30012051
2.07072802 -1.54496432 2.75067877 -0.30703982
2.16570185 -1.57746055 2.75067877 -0.31268395
2.26290828 -1.60249930 2.75067877 -0.31702550
2.36176272 -1.61993002 2.75067877 -0.32004385
2.46167071 -1.62964783 2.75067877 -0.32172492
2.56203124 -1.63159430 2.75067877 -0.32206092
2.66224086 -1.62575779 2.75067877 -0.32105031
2.76169687 -1.61217329 2.75067877 -0.31869776
2.85980110 -1.59092260 2.75067877 -0.31501419
2.95596357 -1.56213341 2.75067877 -0.31001693
3.04960588 -1.52597898 2.75067877 -0.30372998
3.14016495 -1.48267669 2.75067877 -0.29618424
3.22709613 -1.43248695 2.75067877 -0.28741795
3.30987656 -1.37571166 2.75067877 -0.27747701
3.38800838 -1.31269224 2.75067877 -0.26641541
3.46102174 -1.24380768 2.75067877 -0.25429564
3.52847752 -1.16947228 2.75067877 -0.24118904
3.58997005 -1.09013309 2.75067877 -0.22717601
3.64512945 -1.00626732 2.75067877 -0.21234627
3.69362403 -0.91837922 2.75067877 -0.19679867
3.73516209 -0.82699750 2.75067877 -0.18064109
3.76949388 -0.73267170 2.75067877 -0.16398977
3.79641290 -0.63596905 2.75067877 -0.14696858
3.81575728 -0.53747121 2.75067877 -0.12970776
3.82741061 -0.43777048 2.75067877 -0.11234242
3.91706505 -0.33746652 2.70866434 -0.08930001
3.91338324 -0.23672325 2.70866434 -0.07189065
3.90235752 -0.13651748 2.70866434 -0.05477901
3.88404657 -0.03738387 2.70866434 -0.03808895
3.85854823 0.06014867 2.70866434 -0.02193819
3.82599850 0.15555976 2.70866434 -0.00643588
3.78657100 0.24834035 2.70866434 0.00831979
3.74047619 0.33799540 2.70866434 0.02224360
3.68795993 0.42404657 2.70866434 0.03526491
3.62930240 0.50603474 2.70866434 0.04732876
3.56481663 0.58352247 2.70866434 0.05839633
3.49484662 0.65609629 2.70866434 0.06844469
3.41976577 0.72336908 2.70866434 0.07746596
3.33997461 0.78498180 2.70866434 0.08546561
3.25589881 0.84060581 2.70866434 0.09246049
3.16798706 0.88994427 2.70866434 0.09847607
3.07670837 0.93273399 2.70866434 0.10354370
2.98254968 0.96874661 2.70866434 0.10769744
2.88601346 0.99779006 2.70866434 0.11097121
2.78761474 1.01970931 2.70866434 0.11339588
2.68787853 1.03438741 2.70866434 0.11499692
2.58733691 1.04174615 2.70866434 0.11579247
2.48652642 1.04174615 2.70866434 0.11579191
2.38598480 1.03438741 2.70866434 0.11499524
2.28624858 1.01970931 2.70866434 0.11339307
2.18784987 0.99779006 2.70866434 0.11096728
2.09131364 0.96874661 2.70866434 0.10769239
1.99715501 0.93273399 2.70866434 0.10353752
1.90587626 0.88994427 2.70866434 0.09846878
1.81796451 0.84060581 2.70866434 0.09245208
1.73388876 0.78498180 2.70866434 0.08545611
1.65409755 0.72336908 2.70866434 0.07745538
1.57901670 0.65609629 2.70866434 0.06843306
1.50904670 0.58352247 2.70866434 0.05838368
1.44456092 0.50603474 2.70866434 0.04731514
1.38590345 0.42404657 2.70866434 0.03525037
1.33338713 0.33799540 2.70866434 0.02222820
1.28729232 0.24834035 2.70866434 0.00830360
1.24786483 0.15555976 2.70866434 -0.00645279