ITEM: TIMESTEP
0
ITEM: NUMBER OF ATOMS
3
ITEM: BOX BOUNDS pp pp pp
-2.5000000000000000e+01 2.5000000000000000e+01
-2.5000000000000000e+01 2.5000000000000000e+01
-2.5000000000000000e+01 2.5000000000000000e+01
ITEM: ATOMS element x y z q 
O 2.5369 -0.3375 0 -0.911 
H 3.2979 0.2462 0 0.456 
H 1.776 0.2462 0 0.456 
